/workspace/mutzel/ase-last/Diamond/data_lammps000009cnBveX (written by ASE) 

8 	 atoms 
1  atom types
0.0 3.5293901020  xlo xhi
0.0 3.6214246916  ylo yhi
0.0 3.6214754836  zlo zhi
0.0016856735 0.0016134183 -0.0067395442  xy xz yz


Atoms 

     1   1 0.0323917942 -0.0131051716 -0.0075867516
     2   1 0.0397631234 1.7863069299 1.7838558121
     3   1 1.7984209780 1.8040205888 0.0019193812
     4   1 1.7974059376 -0.0302022327 1.7747858219
     5   1 2.6543527750 0.8817186933 2.6911607247
     6   1 0.9419615339 0.8893143018 0.8910229061
     7   1 0.9469088124 2.6829862489 2.6884236957
     8   1 2.6956648303 2.6884644564 0.8859426671
