14
# CELL(abcABC):   25.29166    25.29166    25.29166    90.00000    90.00000    90.00000  Traj: x_centroid Step:           0  Bead:       0 
       O  1.02130e+00 -1.84220e+00 -4.09277e-01
       O  5.52715e+00 -1.58595e+00  2.87994e-01
       H  3.47445e-01 -2.37735e+00 -2.03854e+00
       H  3.29434e+00 -1.71829e+00 -1.89729e-01
       H  6.23056e+00 -3.01079e+00  1.22313e+00
       H  6.67136e+00 -1.14922e+00 -1.08863e+00
       H  7.99921e-02 -3.68232e-01  1.74384e-01
       H -4.61528e-01 -2.34893e-01  4.62476e+00
       H  6.12984e+00 -1.01573e+00  3.36167e+00
       O  4.98561e+00 -1.45263e+00  4.73834e+00
       O  4.79745e-01 -1.70888e+00  4.04103e+00
       H  2.75290e+00 -1.58491e+00  4.26061e+00
       H -1.93943e-01 -2.24386e+00  2.41171e+00
       H  5.68915e+00 -2.87730e+00  5.67356e+00
14
# CELL(abcABC):   25.29166    25.29166    25.29166    90.00000    90.00000    90.00000  Traj: x_centroid Step:           2  Bead:       0 
       O  1.02153e+00 -1.84233e+00 -4.09568e-01
       O  5.52733e+00 -1.58599e+00  2.88051e-01
       H  3.47043e-01 -2.37692e+00 -2.03899e+00
       H  3.29444e+00 -1.72007e+00 -1.88989e-01
       H  6.22973e+00 -3.00912e+00  1.22293e+00
       H  6.67240e+00 -1.14818e+00 -1.08817e+00
       H  7.89518e-02 -3.68855e-01  1.75154e-01
       H -4.62464e-01 -2.33789e-01  4.62477e+00
       H  6.12829e+00 -1.01511e+00  3.36046e+00
       O  4.98539e+00 -1.45265e+00  4.73853e+00
       O  4.79605e-01 -1.70897e+00  4.04125e+00
       H  2.75309e+00 -1.58547e+00  4.25788e+00
       H -1.91979e-01 -2.24242e+00  2.41196e+00
       H  5.68969e+00 -2.87623e+00  5.67302e+00
14
# CELL(abcABC):   25.29166    25.29166    25.29166    90.00000    90.00000    90.00000  Traj: x_centroid Step:           4  Bead:       0 
       O  1.02148e+00 -1.84235e+00 -4.09928e-01
       O  5.52716e+00 -1.58606e+00  2.88123e-01
       H  3.48321e-01 -2.37669e+00 -2.04016e+00
       H  3.29433e+00 -1.72229e+00 -1.88119e-01
       H  6.22782e+00 -3.00701e+00  1.22109e+00
       H  6.67501e+00 -1.14689e+00 -1.08664e+00
       H  7.48057e-02 -3.71528e-01  1.74116e-01
       H -4.64224e-01 -2.31601e-01  4.62584e+00
       H  6.12734e+00 -1.01579e+00  3.35870e+00
       O  4.98574e+00 -1.45261e+00  4.73920e+00
       O  4.79703e-01 -1.70919e+00  4.04137e+00
       H  2.75279e+00 -1.58559e+00  4.25467e+00
       H -1.89433e-01 -2.23963e+00  2.41141e+00
       H  5.68891e+00 -2.87493e+00  5.67122e+00
14
# CELL(abcABC):   25.29166    25.29166    25.29166    90.00000    90.00000    90.00000  Traj: x_centroid Step:           6  Bead:       0 
       O  1.02153e+00 -1.84214e+00 -4.10248e-01
       O  5.52694e+00 -1.58640e+00  2.88262e-01
       H  3.49416e-01 -2.37599e+00 -2.03834e+00
       H  3.29321e+00 -1.72526e+00 -1.87505e-01
       H  6.22697e+00 -3.00427e+00  1.21866e+00
       H  6.67771e+00 -1.14462e+00 -1.08618e+00
       H  7.28402e-02 -3.73422e-01  1.72867e-01
       H -4.65007e-01 -2.31263e-01  4.62681e+00
       H  6.12678e+00 -1.01690e+00  3.35647e+00
       O  4.98581e+00 -1.45217e+00  4.73978e+00
       O  4.79614e-01 -1.70956e+00  4.04148e+00
       H  2.75404e+00 -1.58676e+00  4.25113e+00
       H -1.85999e-01 -2.23815e+00  2.41092e+00
       H  5.68872e+00 -2.87430e+00  5.66908e+00
14
# CELL(abcABC):   25.29166    25.29166    25.29166    90.00000    90.00000    90.00000  Traj: x_centroid Step:           8  Bead:       0 
       O  1.02162e+00 -1.84161e+00 -4.10576e-01
       O  5.52657e+00 -1.58690e+00  2.87621e-01
       H  3.51620e-01 -2.37299e+00 -2.03508e+00
       H  3.29382e+00 -1.72794e+00 -1.86540e-01
       H  6.22631e+00 -3.00317e+00  1.21352e+00
       H  6.68002e+00 -1.14298e+00 -1.08400e+00
       H  7.26296e-02 -3.76972e-01  1.72605e-01
       H -4.64714e-01 -2.31971e-01  4.62467e+00
       H  6.12555e+00 -1.02113e+00  3.35514e+00
       O  4.98600e+00 -1.45163e+00  4.74078e+00
       O  4.79390e-01 -1.70993e+00  4.04183e+00
       H  2.75568e+00 -1.58808e+00  4.24772e+00
       H -1.84052e-01 -2.23577e+00  2.41035e+00
       H  5.68681e+00 -2.87306e+00  5.66963e+00
14
# CELL(abcABC):   25.29166    25.29166    25.29166    90.00000    90.00000    90.00000  Traj: x_centroid Step:          10  Bead:       0 
       O  1.02150e+00 -1.84132e+00 -4.10520e-01
       O  5.52660e+00 -1.58811e+00  2.86485e-01
       H  3.54954e-01 -2.36713e+00 -2.03269e+00
       H  3.29561e+00 -1.72656e+00 -1.84631e-01
       H  6.22432e+00 -2.99972e+00  1.20754e+00
       H  6.68172e+00 -1.14264e+00 -1.07973e+00
       H  7.34713e-02 -3.80801e-01  1.70204e-01
       H -4.64733e-01 -2.33101e-01  4.62310e+00
       H  6.12098e+00 -1.02646e+00  3.35427e+00
       O  4.98618e+00 -1.45041e+00  4.74176e+00
       O  4.79162e-01 -1.71044e+00  4.04238e+00
       H  2.75732e+00 -1.59029e+00  4.24360e+00
       H -1.83483e-01 -2.23399e+00  2.40812e+00
       H  5.68572e+00 -2.87003e+00  5.67099e+00
14
# CELL(abcABC):   25.29166    25.29166    25.29166    90.00000    90.00000    90.00000  Traj: x_centroid Step:          12  Bead:       0 
       O  1.02136e+00 -1.84127e+00 -4.10519e-01
       O  5.52648e+00 -1.58951e+00  2.85145e-01
       H  3.57685e-01 -2.36089e+00 -2.02771e+00
       H  3.29802e+00 -1.72490e+00 -1.80814e-01
       H  6.22255e+00 -2.99625e+00  1.20108e+00
       H  6.68210e+00 -1.14476e+00 -1.07287e+00
       H  7.47590e-02 -3.85578e-01  1.66597e-01
       H -4.63509e-01 -2.34702e-01  4.62166e+00
       H  6.11665e+00 -1.03139e+00  3.35515e+00
       O  4.98643e+00 -1.44903e+00  4.74217e+00
       O  4.79058e-01 -1.71063e+00  4.04323e+00
       H  2.75654e+00 -1.59347e+00  4.23949e+00
       H -1.83829e-01 -2.23072e+00  2.40737e+00
       H  5.68667e+00 -2.86558e+00  5.67216e+00
14
# CELL(abcABC):   25.29166    25.29166    25.29166    90.00000    90.00000    90.00000  Traj: x_centroid Step:          14  Bead:       0 
       O  1.02148e+00 -1.84144e+00 -4.10479e-01
       O  5.52593e+00 -1.59091e+00  2.83983e-01
       H  3.60822e-01 -2.35460e+00 -2.02128e+00
       H  3.30103e+00 -1.72450e+00 -1.77210e-01
       H  6.22197e+00 -2.99396e+00  1.19464e+00
       H  6.67885e+00 -1.14771e+00 -1.06566e+00
       H  7.67841e-02 -3.88857e-01  1.63974e-01
       H -4.60559e-01 -2.36781e-01  4.62004e+00
       H  6.11209e+00 -1.03540e+00  3.35577e+00
       O  4.98655e+00 -1.44745e+00  4.74225e+00
       O  4.79239e-01 -1.71082e+00  4.04391e+00
       H  2.75651e+00 -1.59586e+00  4.23632e+00
       H -1.86159e-01 -2.22576e+00  2.40824e+00
       H  5.68818e+00 -2.86178e+00  5.67302e+00
14
# CELL(abcABC):   25.29166    25.29166    25.29166    90.00000    90.00000    90.00000  Traj: x_centroid Step:          16  Bead:       0 
       O  1.02130e+00 -1.84159e+00 -4.10375e-01
       O  5.52614e+00 -1.59252e+00  2.82589e-01
       H  3.62670e-01 -2.34950e+00 -2.01503e+00
       H  3.30481e+00 -1.72365e+00 -1.73033e-01
       H  6.22337e+00 -2.99442e+00  1.18887e+00
       H  6.67617e+00 -1.14972e+00 -1.05770e+00
       H  7.94612e-02 -3.91327e-01  1.62441e-01
       H -4.56472e-01 -2.39561e-01  4.62055e+00
       H  6.10755e+00 -1.03847e+00  3.35618e+00
       O  4.98640e+00 -1.44550e+00  4.74199e+00
       O  4.79186e-01 -1.71126e+00  4.04476e+00
       H  2.75626e+00 -1.59678e+00  4.23270e+00
       H -1.89069e-01 -2.21891e+00  2.41039e+00
       H  5.68763e+00 -2.85921e+00  5.67360e+00
14
# CELL(abcABC):   25.29166    25.29166    25.29166    90.00000    90.00000    90.00000  Traj: x_centroid Step:          18  Bead:       0 
       O  1.02150e+00 -1.84196e+00 -4.09914e-01
       O  5.52639e+00 -1.59428e+00  2.81515e-01
       H  3.64155e-01 -2.34517e+00 -2.01139e+00
       H  3.30904e+00 -1.72135e+00 -1.68811e-01
       H  6.22380e+00 -2.99685e+00  1.18459e+00
       H  6.67241e+00 -1.15040e+00 -1.04895e+00
       H  8.45949e-02 -3.92746e-01  1.61504e-01
       H -4.53168e-01 -2.43148e-01  4.61971e+00
       H  6.10181e+00 -1.04088e+00  3.35816e+00
       O  4.98627e+00 -1.44329e+00  4.74110e+00
       O  4.78987e-01 -1.71162e+00  4.04536e+00
       H  2.75640e+00 -1.59505e+00  4.23155e+00
       H -1.94034e-01 -2.21282e+00  2.41392e+00
       H  5.68552e+00 -2.85837e+00  5.67305e+00
14
# CELL(abcABC):   25.29166    25.29166    25.29166    90.00000    90.00000    90.00000  Traj: x_centroid Step:          20  Bead:       0 
       O  1.02206e+00 -1.84290e+00 -4.09556e-01
       O  5.52681e+00 -1.59619e+00  2.80697e-01
       H  3.64953e-01 -2.34099e+00 -2.01030e+00
       H  3.31226e+00 -1.72149e+00 -1.64578e-01
       H  6.22459e+00 -2.99916e+00  1.18095e+00
       H  6.66997e+00 -1.14813e+00 -1.04248e+00
       H  8.92979e-02 -3.89964e-01  1.59254e-01
       H -4.49353e-01 -2.46797e-01  4.61875e+00
       H  6.09752e+00 -1.04180e+00  3.36051e+00
       O  4.98565e+00 -1.44119e+00  4.74061e+00
       O  4.78685e-01 -1.71163e+00  4.04562e+00
       H  2.75707e+00 -1.59299e+00  4.23208e+00
       H -1.99226e-01 -2.20515e+00  2.41862e+00
       H  5.68246e+00 -2.85834e+00  5.67141e+00
14
# CELL(abcABC):   25.29166    25.29166    25.29166    90.00000    90.00000    90.00000  Traj: x_centroid Step:          22  Bead:       0 
       O  1.02281e+00 -1.84438e+00 -4.08766e-01
       O  5.52705e+00 -1.59800e+00  2.80019e-01
       H  3.64112e-01 -2.33719e+00 -2.01237e+00
       H  3.31701e+00 -1.72061e+00 -1.64563e-01
       H  6.22426e+00 -3.00211e+00  1.17967e+00
       H  6.67027e+00 -1.14184e+00 -1.03803e+00
       H  9.13656e-02 -3.85620e-01  1.57328e-01
       H -4.46301e-01 -2.49212e-01  4.61894e+00
       H  6.09344e+00 -1.04363e+00  3.36008e+00
       O  4.98494e+00 -1.43885e+00  4.74005e+00
       O  4.78599e-01 -1.71183e+00  4.04582e+00
       H  2.75624e+00 -1.59039e+00  4.23165e+00
       H -2.05107e-01 -2.19778e+00  2.42481e+00
       H  5.68109e+00 -2.85827e+00  5.67056e+00
14
# CELL(abcABC):   25.29166    25.29166    25.29166    90.00000    90.00000    90.00000  Traj: x_centroid Step:          24  Bead:       0 
       O  1.02384e+00 -1.84574e+00 -4.07452e-01
       O  5.52686e+00 -1.59963e+00  2.78821e-01
       H  3.61089e-01 -2.33563e+00 -2.01497e+00
       H  3.32168e+00 -1.71894e+00 -1.65040e-01
       H  6.22323e+00 -3.00716e+00  1.18095e+00
       H  6.67207e+00 -1.13295e+00 -1.03647e+00
       H  9.20985e-02 -3.81631e-01  1.54415e-01
       H -4.44755e-01 -2.51961e-01  4.61976e+00
       H  6.08874e+00 -1.04775e+00  3.36032e+00
       O  4.98476e+00 -1.43628e+00  4.73953e+00
       O  4.78458e-01 -1.71208e+00  4.04572e+00
       H  2.75540e+00 -1.58756e+00  4.23277e+00
       H -2.11012e-01 -2.19276e+00  2.43274e+00
       H  5.67987e+00 -2.85965e+00  5.67167e+00
14
# CELL(abcABC):   25.29166    25.29166    25.29166    90.00000    90.00000    90.00000  Traj: x_centroid Step:          26  Bead:       0 
       O  1.02529e+00 -1.84714e+00 -4.05744e-01
       O  5.52601e+00 -1.60083e+00  2.77473e-01
       H  3.56890e-01 -2.33614e+00 -2.01909e+00
       H  3.32867e+00 -1.71936e+00 -1.67140e-01
       H  6.22266e+00 -3.01386e+00  1.18241e+00
       H  6.67618e+00 -1.12316e+00 -1.03950e+00
       H  9.23340e-02 -3.76527e-01  1.52274e-01
       H -4.43890e-01 -2.55227e-01  4.62055e+00
       H  6.08373e+00 -1.05054e+00  3.35952e+00
       O  4.98490e+00 -1.43354e+00  4.73917e+00
       O  4.77977e-01 -1.71249e+00  4.04573e+00
       H  2.75380e+00 -1.58375e+00  4.23401e+00
       H -2.16624e-01 -2.19017e+00  2.44049e+00
       H  5.68040e+00 -2.86287e+00  5.67246e+00
14
# CELL(abcABC):   25.29166    25.29166    25.29166    90.00000    90.00000    90.00000  Traj: x_centroid Step:          28  Bead:       0 
       O  1.02644e+00 -1.84834e+00 -4.03697e-01
       O  5.52556e+00 -1.60224e+00  2.76106e-01
       H  3.50743e-01 -2.33732e+00 -2.02380e+00
       H  3.33563e+00 -1.72058e+00 -1.68254e-01
       H  6.22315e+00 -3.02193e+00  1.18338e+00
       H  6.68057e+00 -1.11329e+00 -1.04443e+00
       H  9.05907e-02 -3.68579e-01  1.52403e-01
       H -4.42903e-01 -2.60553e-01  4.62042e+00
       H  6.08132e+00 -1.05280e+00  3.35786e+00
       O  4.98500e+00 -1.43130e+00  4.73932e+00
       O  4.77348e-01 -1.71248e+00  4.04539e+00
       H  2.75203e+00 -1.57741e+00  4.23296e+00
       H -2.21458e-01 -2.18680e+00  2.44676e+00
       H  5.68179e+00 -2.86671e+00  5.67104e+00
14
# CELL(abcABC):   25.29166    25.29166    25.29166    90.00000    90.00000    90.00000  Traj: x_centroid Step:          30  Bead:       0 
       O  1.02734e+00 -1.84942e+00 -4.01341e-01
       O  5.52507e+00 -1.60417e+00  2.74738e-01
       H  3.44772e-01 -2.33791e+00 -2.02967e+00
       H  3.34172e+00 -1.72026e+00 -1.69483e-01
       H  6.22212e+00 -3.02881e+00  1.18331e+00
       H  6.68390e+00 -1.10311e+00 -1.05149e+00
       H  8.98363e-02 -3.61299e-01  1.53829e-01
       H -4.41962e-01 -2.66940e-01  4.61892e+00
       H  6.08080e+00 -1.05448e+00  3.35497e+00
       O  4.98496e+00 -1.42937e+00  4.73907e+00
       O  4.77203e-01 -1.71172e+00  4.04532e+00
       H  2.74803e+00 -1.57208e+00  4.23296e+00
       H -2.25597e-01 -2.18360e+00  2.45344e+00
       H  5.68419e+00 -2.87241e+00  5.67077e+00
14
# CELL(abcABC):   25.29166    25.29166    25.29166    90.00000    90.00000    90.00000  Traj: x_centroid Step:          32  Bead:       0 
       O  1.02842e+00 -1.85066e+00 -3.99326e-01
       O  5.52470e+00 -1.60602e+00  2.73633e-01
       H  3.38472e-01 -2.33978e+00 -2.03645e+00
       H  3.34532e+00 -1.71920e+00 -1.71692e-01
       H  6.22099e+00 -3.03542e+00  1.18304e+00
       H  6.68265e+00 -1.09436e+00 -1.05872e+00
       H  9.18315e-02 -3.55538e-01  1.55005e-01
       H -4.42104e-01 -2.74515e-01  4.61665e+00
       H  6.08095e+00 -1.05665e+00  3.35329e+00
       O  4.98494e+00 -1.42732e+00  4.73888e+00
       O  4.76827e-01 -1.71067e+00  4.04508e+00
       H  2.74571e+00 -1.56771e+00  4.23463e+00
       H -2.29104e-01 -2.18231e+00  2.46191e+00
       H  5.68818e+00 -2.87557e+00  5.67235e+00
14
# CELL(abcABC):   25.29166    25.29166    25.29166    90.00000    90.00000    90.00000  Traj: x_centroid Step:          34  Bead:       0 
       O  1.02940e+00 -1.85168e+00 -3.96869e-01
       O  5.52471e+00 -1.60781e+00  2.72050e-01
       H  3.30567e-01 -2.34397e+00 -2.04172e+00
       H  3.34711e+00 -1.71903e+00 -1.74065e-01
       H  6.22107e+00 -3.04235e+00  1.18369e+00
       H  6.67949e+00 -1.08630e+00 -1.06630e+00
       H  9.36051e-02 -3.51631e-01  1.55111e-01
       H -4.44035e-01 -2.82491e-01  4.61530e+00
       H  6.08156e+00 -1.05807e+00  3.35039e+00
       O  4.98494e+00 -1.42523e+00  4.73887e+00
       O  4.76616e-01 -1.70966e+00  4.04489e+00
       H  2.74201e+00 -1.56257e+00  4.23497e+00
       H -2.32836e-01 -2.18249e+00  2.46889e+00
       H  5.69201e+00 -2.87683e+00  5.67294e+00
14
# CELL(abcABC):   25.29166    25.29166    25.29166    90.00000    90.00000    90.00000  Traj: x_centroid Step:          36  Bead:       0 
       O  1.03020e+00 -1.85227e+00 -3.94514e-01
       O  5.52501e+00 -1.60954e+00  2.69993e-01
       H  3.23199e-01 -2.34942e+00 -2.04459e+00
       H  3.34769e+00 -1.71701e+00 -1.75729e-01
       H  6.22144e+00 -3.04801e+00  1.18509e+00
       H  6.67578e+00 -1.07751e+00 -1.07240e+00
       H  9.48931e-02 -3.51072e-01  1.53913e-01
       H -4.47999e-01 -2.92350e-01  4.61439e+00
       H  6.08127e+00 -1.05755e+00  3.34727e+00
       O  4.98479e+00 -1.42298e+00  4.73935e+00
       O  4.76900e-01 -1.70901e+00  4.04473e+00
       H  2.73699e+00 -1.55869e+00  4.23392e+00
       H -2.38155e-01 -2.18336e+00  2.47361e+00
       H  5.69588e+00 -2.87983e+00  5.67394e+00
14
# CELL(abcABC):   25.29166    25.29166    25.29166    90.00000    90.00000    90.00000  Traj: x_centroid Step:          38  Bead:       0 
       O  1.03051e+00 -1.85283e+00 -3.92428e-01
       O  5.52514e+00 -1.61090e+00  2.67469e-01
       H  3.18017e-01 -2.35277e+00 -2.04637e+00
       H  3.34798e+00 -1.71754e+00 -1.77052e-01
       H  6.22219e+00 -3.05244e+00  1.18420e+00
       H  6.67000e+00 -1.07017e+00 -1.07604e+00
       H  9.54990e-02 -3.53150e-01  1.50384e-01
       H -4.51824e-01 -3.02397e-01  4.61353e+00
       H  6.08186e+00 -1.05735e+00  3.34355e+00
       O  4.98473e+00 -1.42133e+00  4.74014e+00
       O  4.77638e-01 -1.70788e+00  4.04505e+00
       H  2.73346e+00 -1.55464e+00  4.23410e+00
       H -2.43704e-01 -2.18374e+00  2.47666e+00
       H  5.69971e+00 -2.88435e+00  5.67591e+00
14
# CELL(abcABC):   25.29166    25.29166    25.29166    90.00000    90.00000    90.00000  Traj: x_centroid Step:          40  Bead:       0 
       O  1.03072e+00 -1.85342e+00 -3.90656e-01
       O  5.52546e+00 -1.61206e+00  2.64618e-01
       H  3.16304e-01 -2.35519e+00 -2.04409e+00
       H  3.34864e+00 -1.71856e+00 -1.76511e-01
       H  6.22301e+00 -3.05598e+00  1.18277e+00
       H  6.66298e+00 -1.06671e+00 -1.07995e+00
       H  9.68283e-02 -3.58870e-01  1.42685e-01
       H -4.56266e-01 -3.11110e-01  4.61394e+00
       H  6.08301e+00 -1.05883e+00  3.33902e+00
       O  4.98419e+00 -1.42006e+00  4.74075e+00
       O  4.78486e-01 -1.70615e+00  4.04596e+00
       H  2.73090e+00 -1.54867e+00  4.23638e+00
       H -2.51402e-01 -2.18400e+00  2.47805e+00
       H  5.70590e+00 -2.89034e+00  5.67957e+00
14
# CELL(abcABC):   25.29166    25.29166    25.29166    90.00000    90.00000    90.00000  Traj: x_centroid Step:          42  Bead:       0 
       O  1.03068e+00 -1.85428e+00 -3.88768e-01
       O  5.52593e+00 -1.61319e+00  2.61754e-01
       H  3.14781e-01 -2.35938e+00 -2.03916e+00
       H  3.34756e+00 -1.72039e+00 -1.76746e-01
       H  6.22387e+00 -3.05854e+00  1.17813e+00
       H  6.65502e+00 -1.06339e+00 -1.08045e+00
       H  9.95374e-02 -3.67758e-01  1.31423e-01
       H -4.59687e-01 -3.20747e-01  4.61595e+00
       H  6.08357e+00 -1.05917e+00  3.33314e+00
       O  4.98391e+00 -1.41889e+00  4.74129e+00
       O  4.79025e-01 -1.70372e+00  4.04696e+00
       H  2.72854e+00 -1.54308e+00  4.24134e+00
       H -2.57186e-01 -2.18326e+00  2.47771e+00
       H  5.71303e+00 -2.89826e+00  5.68149e+00
14
# CELL(abcABC):   25.29166    25.29166    25.29166    90.00000    90.00000    90.00000  Traj: x_centroid Step:          44  Bead:       0 
       O  1.03043e+00 -1.85512e+00 -3.87178e-01
       O  5.52621e+00 -1.61371e+00  2.58737e-01
       H  3.11689e-01 -2.36553e+00 -2.02951e+00
       H  3.34649e+00 -1.72237e+00 -1.77222e-01
       H  6.22347e+00 -3.06063e+00  1.17307e+00
       H  6.64818e+00 -1.06513e+00 -1.07769e+00
       H  1.03730e-01 -3.77616e-01  1.21319e-01
       H -4.61365e-01 -3.29745e-01  4.61777e+00
       H  6.08305e+00 -1.05994e+00  3.32920e+00
       O  4.98396e+00 -1.41735e+00  4.74211e+00
       O  4.79409e-01 -1.70184e+00  4.04751e+00
       H  2.72722e+00 -1.53688e+00  4.24747e+00
       H -2.60686e-01 -2.18088e+00  2.47832e+00
       H  5.71968e+00 -2.90803e+00  5.68111e+00
14
# CELL(abcABC):   25.29166    25.29166    25.29166    90.00000    90.00000    90.00000  Traj: x_centroid Step:          46  Bead:       0 
       O  1.02978e+00 -1.85600e+00 -3.85589e-01
       O  5.52628e+00 -1.61431e+00  2.55193e-01
       H  3.12102e-01 -2.36988e+00 -2.01538e+00
       H  3.34760e+00 -1.72392e+00 -1.75059e-01
       H  6.22377e+00 -3.06103e+00  1.16541e+00
       H  6.64237e+00 -1.06956e+00 -1.07582e+00
       H  1.07985e-01 -3.86512e-01  1.11746e-01
       H -4.62525e-01 -3.39160e-01  4.61829e+00
       H  6.08382e+00 -1.06172e+00  3.32617e+00
       O  4.98396e+00 -1.41634e+00  4.74348e+00
       O  4.79843e-01 -1.69956e+00  4.04798e+00
       H  2.72711e+00 -1.52796e+00  4.25262e+00
       H -2.64755e-01 -2.17826e+00  2.47747e+00
       H  5.72640e+00 -2.91755e+00  5.68016e+00
14
# CELL(abcABC):   25.29166    25.29166    25.29166    90.00000    90.00000    90.00000  Traj: x_centroid Step:          48  Bead:       0 
       O  1.02884e+00 -1.85678e+00 -3.84185e-01
       O  5.52622e+00 -1.61471e+00  2.52011e-01
       H  3.15349e-01 -2.37486e+00 -2.00098e+00
       H  3.34862e+00 -1.72348e+00 -1.72096e-01
       H  6.22311e+00 -3.05873e+00  1.15622e+00
       H  6.63617e+00 -1.07656e+00 -1.07609e+00
       H  1.10832e-01 -3.93890e-01  1.02579e-01
       H -4.63193e-01 -3.50960e-01  4.61974e+00
       H  6.08488e+00 -1.06425e+00  3.32331e+00
       O  4.98350e+00 -1.41582e+00  4.74448e+00
       O  4.80953e-01 -1.69700e+00  4.04875e+00
       H  2.72842e+00 -1.51790e+00  4.25825e+00
       H -2.68260e-01 -2.17585e+00  2.47565e+00
       H  5.73351e+00 -2.92903e+00  5.67910e+00
14
# CELL(abcABC):   25.29166    25.29166    25.29166    90.00000    90.00000    90.00000  Traj: x_centroid Step:          50  Bead:       0 
       O  1.02742e+00 -1.85756e+00 -3.83177e-01
       O  5.52587e+00 -1.61527e+00  2.49045e-01
       H  3.20180e-01 -2.38068e+00 -1.98295e+00
       H  3.35032e+00 -1.72099e+00 -1.71322e-01
       H  6.22200e+00 -3.05525e+00  1.14651e+00
       H  6.63155e+00 -1.08334e+00 -1.07877e+00
       H  1.11086e-01 -3.96678e-01  9.47806e-02
       H -4.64374e-01 -3.63189e-01  4.62051e+00
       H  6.08670e+00 -1.06576e+00  3.32220e+00
       O  4.98324e+00 -1.41562e+00  4.74545e+00
       O  4.82525e-01 -1.69437e+00  4.04967e+00
       H  2.73180e+00 -1.50708e+00  4.26363e+00
       H -2.74256e-01 -2.17584e+00  2.47493e+00
       H  5.74170e+00 -2.94018e+00  5.67723e+00
14
# CELL(abcABC):   25.29166    25.29166    25.29166    90.00000    90.00000    90.00000  Traj: x_centroid Step:          52  Bead:       0 
       O  1.02603e+00 -1.85854e+00 -3.82469e-01
       O  5.52517e+00 -1.61581e+00  2.46265e-01
       H  3.25726e-01 -2.38854e+00 -1.96617e+00
       H  3.35146e+00 -1.71880e+00 -1.70645e-01
       H  6.22212e+00 -3.05099e+00  1.13720e+00
       H  6.63051e+00 -1.08952e+00 -1.08260e+00
       H  1.07480e-01 -3.94677e-01  8.88641e-02
       H -4.65247e-01 -3.76243e-01  4.62013e+00
       H  6.09047e+00 -1.06689e+00  3.32204e+00
       O  4.98315e+00 -1.41524e+00  4.74649e+00
       O  4.84168e-01 -1.69195e+00  4.05049e+00
       H  2.73492e+00 -1.49721e+00  4.27163e+00
       H -2.81128e-01 -2.17451e+00  2.47571e+00
       H  5.74896e+00 -2.95216e+00  5.67397e+00
14
# CELL(abcABC):   25.29166    25.29166    25.29166    90.00000    90.00000    90.00000  Traj: x_centroid Step:          54  Bead:       0 
       O  1.02525e+00 -1.85993e+00 -3.81658e-01
       O  5.52438e+00 -1.61609e+00  2.43596e-01
       H  3.31662e-01 -2.39929e+00 -1.95292e+00
       H  3.35236e+00 -1.71742e+00 -1.71212e-01
       H  6.22213e+00 -3.04597e+00  1.12561e+00
       H  6.63062e+00 -1.09586e+00 -1.08748e+00
       H  1.01007e-01 -3.84192e-01  8.40134e-02
       H -4.66375e-01 -3.88042e-01  4.62066e+00
       H  6.09267e+00 -1.06745e+00  3.32283e+00
       O  4.98285e+00 -1.41492e+00  4.74737e+00
       O  4.85659e-01 -1.68969e+00  4.05146e+00
       H  2.73833e+00 -1.48725e+00  4.27982e+00
       H -2.89209e-01 -2.17216e+00  2.47799e+00
       H  5.75810e+00 -2.96633e+00  5.67093e+00
14
# CELL(abcABC):   25.29166    25.29166    25.29166    90.00000    90.00000    90.00000  Traj: x_centroid Step:          56  Bead:       0 
       O  1.02428e+00 -1.86118e+00 -3.80593e-01
       O  5.52368e+00 -1.61646e+00  2.40589e-01
       H  3.36926e-01 -2.41294e+00 -1.94582e+00
       H  3.35139e+00 -1.71726e+00 -1.73141e-01
       H  6.22401e+00 -3.04257e+00  1.11427e+00
       H  6.63157e+00 -1.10364e+00 -1.09304e+00
       H  9.27289e-02 -3.69852e-01  8.15862e-02
       H -4.65942e-01 -4.00435e-01  4.62154e+00
       H  6.09473e+00 -1.06775e+00  3.32384e+00
       O  4.98251e+00 -1.41469e+00  4.74839e+00
       O  4.87305e-01 -1.68715e+00  4.05264e+00
       H  2.73935e+00 -1.47807e+00  4.28834e+00
       H -2.96008e-01 -2.16930e+00  2.48048e+00
       H  5.76826e+00 -2.98044e+00  5.66809e+00
14
# CELL(abcABC):   25.29166    25.29166    25.29166    90.00000    90.00000    90.00000  Traj: x_centroid Step:          58  Bead:       0 
       O  1.02345e+00 -1.86257e+00 -3.79267e-01
       O  5.52250e+00 -1.61662e+00  2.37428e-01
       H  3.40485e-01 -2.42761e+00 -1.94195e+00
       H  3.34868e+00 -1.71843e+00 -1.74492e-01
       H  6.22765e+00 -3.04005e+00  1.10495e+00
       H  6.63451e+00 -1.11205e+00 -1.10252e+00
       H  8.63915e-02 -3.52138e-01  8.04027e-02
       H -4.63973e-01 -4.12302e-01  4.62218e+00
       H  6.09849e+00 -1.06853e+00  3.32635e+00
       O  4.98189e+00 -1.41460e+00  4.74926e+00
       O  4.89324e-01 -1.68438e+00  4.05368e+00
       H  2.74026e+00 -1.47061e+00  4.29883e+00
       H -3.03069e-01 -2.16693e+00  2.48371e+00
       H  5.77735e+00 -2.99433e+00  5.66761e+00
14
# CELL(abcABC):   25.29166    25.29166    25.29166    90.00000    90.00000    90.00000  Traj: x_centroid Step:          60  Bead:       0 
       O  1.02345e+00 -1.86343e+00 -3.77756e-01
       O  5.52081e+00 -1.61723e+00  2.34384e-01
       H  3.41746e-01 -2.44314e+00 -1.94027e+00
       H  3.34344e+00 -1.72009e+00 -1.77099e-01
       H  6.23254e+00 -3.03866e+00  1.09644e+00
       H  6.64113e+00 -1.11913e+00 -1.11481e+00
       H  8.15505e-02 -3.33902e-01  7.90377e-02
       H -4.60493e-01 -4.23029e-01  4.62183e+00
       H  6.10090e+00 -1.06928e+00  3.33070e+00
       O  4.98095e+00 -1.41447e+00  4.74995e+00
       O  4.91239e-01 -1.68147e+00  4.05474e+00
       H  2.74132e+00 -1.46563e+00  4.31031e+00
       H -3.10423e-01 -2.16608e+00  2.48648e+00
       H  5.78651e+00 -3.00893e+00  5.66900e+00
14
# CELL(abcABC):   25.29166    25.29166    25.29166    90.00000    90.00000    90.00000  Traj: x_centroid Step:          62  Bead:       0 
       O  1.02374e+00 -1.86417e+00 -3.76005e-01
       O  5.51810e+00 -1.61815e+00  2.31434e-01
       H  3.40669e-01 -2.46028e+00 -1.94239e+00
       H  3.33748e+00 -1.72019e+00 -1.80073e-01
       H  6.23762e+00 -3.04026e+00  1.09020e+00
       H  6.64936e+00 -1.12648e+00 -1.12914e+00
       H  7.90335e-02 -3.19270e-01  7.66842e-02
       H -4.57695e-01 -4.34436e-01  4.62278e+00
       H  6.10318e+00 -1.07217e+00  3.33472e+00
       O  4.98089e+00 -1.41399e+00  4.75061e+00
       O  4.92814e-01 -1.67817e+00  4.05600e+00
       H  2.74381e+00 -1.46081e+00  4.32133e+00
       H -3.17108e-01 -2.16541e+00  2.48765e+00
       H  5.79599e+00 -3.02216e+00  5.66848e+00
14
# CELL(abcABC):   25.29166    25.29166    25.29166    90.00000    90.00000    90.00000  Traj: x_centroid Step:          64  Bead:       0 
       O  1.02391e+00 -1.86491e+00 -3.74017e-01
       O  5.51530e+00 -1.61878e+00  2.28532e-01
       H  3.41268e-01 -2.47865e+00 -1.94549e+00
       H  3.33165e+00 -1.72080e+00 -1.83305e-01
       H  6.24129e+00 -3.04441e+00  1.08531e+00
       H  6.65649e+00 -1.13443e+00 -1.14413e+00
       H  8.00385e-02 -3.08310e-01  7.42914e-02
       H -4.55046e-01 -4.45518e-01  4.62425e+00
       H  6.10705e+00 -1.07434e+00  3.33924e+00
       O  4.98062e+00 -1.41340e+00  4.75154e+00
       O  4.94242e-01 -1.67508e+00  4.05666e+00
       H  2.74699e+00 -1.45453e+00  4.33166e+00
       H -3.22055e-01 -2.16187e+00  2.48858e+00
       H  5.80812e+00 -3.03527e+00  5.66901e+00
14
# CELL(abcABC):   25.29166    25.29166    25.29166    90.00000    90.00000    90.00000  Traj: x_centroid Step:          66  Bead:       0 
       O  1.02401e+00 -1.86522e+00 -3.71989e-01
       O  5.51273e+00 -1.61905e+00  2.25800e-01
       H  3.43022e-01 -2.49698e+00 -1.94986e+00
       H  3.32533e+00 -1.72185e+00 -1.85131e-01
       H  6.24422e+00 -3.04783e+00  1.08165e+00
       H  6.66126e+00 -1.14273e+00 -1.16027e+00
       H  8.30933e-02 -3.02154e-01  7.10648e-02
       H -4.53873e-01 -4.58247e-01  4.62506e+00
       H  6.11234e+00 -1.07380e+00  3.34306e+00
       O  4.98025e+00 -1.41311e+00  4.75254e+00
       O  4.95538e-01 -1.67242e+00  4.05728e+00
       H  2.75136e+00 -1.44742e+00  4.33934e+00
       H -3.25847e-01 -2.15723e+00  2.49135e+00
       H  5.81935e+00 -3.04750e+00  5.66861e+00
14
# CELL(abcABC):   25.29166    25.29166    25.29166    90.00000    90.00000    90.00000  Traj: x_centroid Step:          68  Bead:       0 
       O  1.02432e+00 -1.86510e+00 -3.69748e-01
       O  5.51031e+00 -1.61895e+00  2.22368e-01
       H  3.43481e-01 -2.51642e+00 -1.95343e+00
       H  3.32039e+00 -1.72349e+00 -1.84905e-01
       H  6.24636e+00 -3.05235e+00  1.08088e+00
       H  6.66497e+00 -1.15212e+00 -1.17340e+00
       H  8.78616e-02 -2.99128e-01  6.77699e-02
       H -4.52136e-01 -4.71490e-01  4.62604e+00
       H  6.11708e+00 -1.07480e+00  3.34557e+00
       O  4.97971e+00 -1.41306e+00  4.75353e+00
       O  4.96923e-01 -1.66970e+00  4.05800e+00
       H  2.75485e+00 -1.43992e+00  4.34478e+00
       H -3.29637e-01 -2.15477e+00  2.49489e+00
       H  5.82717e+00 -3.05903e+00  5.66834e+00
14
# CELL(abcABC):   25.29166    25.29166    25.29166    90.00000    90.00000    90.00000  Traj: x_centroid Step:          70  Bead:       0 
       O  1.02457e+00 -1.86459e+00 -3.67510e-01
       O  5.50812e+00 -1.61877e+00  2.18649e-01
       H  3.44676e-01 -2.53460e+00 -1.95624e+00
       H  3.31795e+00 -1.72450e+00 -1.83993e-01
       H  6.24834e+00 -3.05656e+00  1.08220e+00
       H  6.66553e+00 -1.16399e+00 -1.18563e+00
       H  9.57839e-02 -3.01094e-01  6.43081e-02
       H -4.50372e-01 -4.82748e-01  4.62556e+00
       H  6.12225e+00 -1.07551e+00  3.34831e+00
       O  4.97891e+00 -1.41307e+00  4.75464e+00
       O  4.98388e-01 -1.66703e+00  4.05889e+00
       H  2.75777e+00 -1.43337e+00  4.35051e+00
       H -3.35687e-01 -2.15501e+00  2.49564e+00
       H  5.83443e+00 -3.06898e+00  5.66771e+00
14
# CELL(abcABC):   25.29166    25.29166    25.29166    90.00000    90.00000    90.00000  Traj: x_centroid Step:          72  Bead:       0 
       O  1.02472e+00 -1.86381e+00 -3.65862e-01
       O  5.50614e+00 -1.61848e+00  2.14848e-01
       H  3.45516e-01 -2.55189e+00 -1.95708e+00
       H  3.31539e+00 -1.72572e+00 -1.83290e-01
       H  6.24785e+00 -3.06064e+00  1.08445e+00
       H  6.66288e+00 -1.17861e+00 -1.19513e+00
       H  1.05742e-01 -3.06533e-01  6.00606e-02
       H -4.46349e-01 -4.92161e-01  4.62378e+00
       H  6.12930e+00 -1.07662e+00  3.35048e+00
       O  4.97766e+00 -1.41282e+00  4.75586e+00
       O  5.00215e-01 -1.66484e+00  4.06012e+00