14
# CELL(abcABC):   13.38377    13.38377    13.38377    90.00000    90.00000    90.00000  Traj: positions{angstrom} Step:           0  Bead:       0 
       O  5.40450e-01 -9.74850e-01 -2.16580e-01
       O  2.92484e+00 -8.39250e-01  1.52400e-01
       H  1.83860e-01 -1.25804e+00 -1.07875e+00
       H  1.74329e+00 -9.09280e-01 -1.00400e-01
       H  3.29707e+00 -1.59324e+00  6.47250e-01
       H  3.53033e+00 -6.08140e-01 -5.76080e-01
       H  4.23300e-02 -1.94860e-01  9.22800e-02
       H -2.44230e-01 -1.24300e-01  2.44732e+00
       H  3.24377e+00 -5.37500e-01  1.77892e+00
       O  2.63827e+00 -7.68700e-01  2.50742e+00
       O  2.53870e-01 -9.04300e-01  2.13842e+00
       H  1.45677e+00 -8.38700e-01  2.25462e+00
       H -1.02630e-01 -1.18740e+00  1.27622e+00
       H  3.01057e+00 -1.52260e+00  3.00232e+00
14
# CELL(abcABC):   13.38377    13.38377    13.38377    90.00000    90.00000    90.00000  Traj: positions{angstrom} Step:           2  Bead:       0 
       O  5.40571e-01 -9.74917e-01 -2.16734e-01
       O  2.92494e+00 -8.39270e-01  1.52430e-01
       H  1.83647e-01 -1.25781e+00 -1.07899e+00
       H  1.74334e+00 -9.10222e-01 -1.00008e-01
       H  3.29663e+00 -1.59236e+00  6.47146e-01
       H  3.53088e+00 -6.07593e-01 -5.75835e-01
       H  4.17795e-02 -1.95190e-01  9.26877e-02
       H -2.44725e-01 -1.23716e-01  2.44732e+00
       H  3.24295e+00 -5.37174e-01  1.77828e+00
       O  2.63816e+00 -7.68709e-01  2.50752e+00
       O  2.53796e-01 -9.04351e-01  2.13854e+00
       H  1.45687e+00 -8.38993e-01  2.25318e+00
       H -1.01591e-01 -1.18664e+00  1.27635e+00
       H  3.01086e+00 -1.52203e+00  3.00203e+00
14
# CELL(abcABC):   13.38377    13.38377    13.38377    90.00000    90.00000    90.00000  Traj: positions{angstrom} Step:           4  Bead:       0 
       O  5.40543e-01 -9.74927e-01 -2.16925e-01
       O  2.92485e+00 -8.39308e-01  1.52468e-01
       H  1.84324e-01 -1.25769e+00 -1.07960e+00
       H  1.74329e+00 -9.11398e-01 -9.95483e-02
       H  3.29562e+00 -1.59124e+00  6.46175e-01
       H  3.53226e+00 -6.06906e-01 -5.75025e-01
       H  3.95855e-02 -1.96604e-01  9.21383e-02
       H -2.45657e-01 -1.22558e-01  2.44789e+00
       H  3.24245e+00 -5.37534e-01  1.77735e+00
       O  2.63834e+00 -7.68686e-01  2.50788e+00
       O  2.53848e-01 -9.04466e-01  2.13860e+00
       H  1.45671e+00 -8.39056e-01  2.25147e+00
       H -1.00243e-01 -1.18516e+00  1.27606e+00
       H  3.01044e+00 -1.52135e+00  3.00108e+00
14
# CELL(abcABC):   13.38377    13.38377    13.38377    90.00000    90.00000    90.00000  Traj: positions{angstrom} Step:           6  Bead:       0 
       O  5.40570e-01 -9.74818e-01 -2.17094e-01
       O  2.92473e+00 -8.39487e-01  1.52542e-01
       H  1.84903e-01 -1.25732e+00 -1.07864e+00
       H  1.74269e+00 -9.12969e-01 -9.92234e-02
       H  3.29517e+00 -1.58979e+00  6.44888e-01
       H  3.53369e+00 -6.05707e-01 -5.74780e-01
       H  3.85454e-02 -1.97607e-01  9.14774e-02
       H -2.46071e-01 -1.22379e-01  2.44840e+00
       H  3.24215e+00 -5.38119e-01  1.77617e+00
       O  2.63838e+00 -7.68455e-01  2.50819e+00
       O  2.53801e-01 -9.04661e-01  2.13866e+00
       H  1.45738e+00 -8.39675e-01  2.24960e+00
       H -9.84262e-02 -1.18438e+00  1.27581e+00
       H  3.01034e+00 -1.52102e+00  2.99995e+00
14
# CELL(abcABC):   13.38377    13.38377    13.38377    90.00000    90.00000    90.00000  Traj: positions{angstrom} Step:           8  Bead:       0 
       O  5.40617e-01 -9.74537e-01 -2.17268e-01
       O  2.92453e+00 -8.39753e-01  1.52203e-01
       H  1.86070e-01 -1.25573e+00 -1.07692e+00
       H  1.74302e+00 -9.14388e-01 -9.87125e-02
       H  3.29482e+00 -1.58921e+00  6.42165e-01
       H  3.53492e+00 -6.04840e-01 -5.73626e-01
       H  3.84339e-02 -1.99485e-01  9.13385e-02
       H -2.45916e-01 -1.22754e-01  2.44727e+00
       H  3.24150e+00 -5.40359e-01  1.77546e+00
       O  2.63848e+00 -7.68170e-01  2.50871e+00
       O  2.53682e-01 -9.04856e-01  2.13884e+00
       H  1.45825e+00 -8.40376e-01  2.24779e+00
       H -9.73960e-02 -1.18312e+00  1.27550e+00
       H  3.00933e+00 -1.52036e+00  3.00024e+00
14
# CELL(abcABC):   13.38377    13.38377    13.38377    90.00000    90.00000    90.00000  Traj: positions{angstrom} Step:          10  Bead:       0 
       O  5.40554e-01 -9.74386e-01 -2.17238e-01
       O  2.92455e+00 -8.40390e-01  1.51601e-01
       H  1.87834e-01 -1.25263e+00 -1.07566e+00
       H  1.74396e+00 -9.13654e-01 -9.77024e-02
       H  3.29377e+00 -1.58738e+00  6.39003e-01
       H  3.53581e+00 -6.04659e-01 -5.71367e-01
       H  3.88793e-02 -2.01511e-01  9.00680e-02
       H -2.45926e-01 -1.23352e-01  2.44644e+00
       H  3.23908e+00 -5.43181e-01  1.77500e+00
       O  2.63857e+00 -7.67526e-01  2.50923e+00
       O  2.53561e-01 -9.05126e-01  2.13914e+00
       H  1.45911e+00 -8.41547e-01  2.24562e+00
       H -9.70950e-02 -1.18217e+00  1.27432e+00
       H  3.00875e+00 -1.51875e+00  3.00096e+00
14
# CELL(abcABC):   13.38377    13.38377    13.38377    90.00000    90.00000    90.00000  Traj: positions{angstrom} Step:          12  Bead:       0 
       O  5.40478e-01 -9.74359e-01 -2.17237e-01
       O  2.92449e+00 -8.41132e-01  1.50892e-01
       H  1.89279e-01 -1.24933e+00 -1.07302e+00
       H  1.74524e+00 -9.12779e-01 -9.56824e-02
       H  3.29283e+00 -1.58555e+00  6.35583e-01
       H  3.53601e+00 -6.05779e-01 -5.67741e-01
       H  3.95608e-02 -2.04039e-01  8.81594e-02
       H -2.45278e-01 -1.24199e-01  2.44568e+00
       H  3.23679e+00 -5.45788e-01  1.77547e+00
       O  2.63870e+00 -7.66795e-01  2.50945e+00
       O  2.53507e-01 -9.05226e-01  2.13958e+00
       H  1.45870e+00 -8.43228e-01  2.24344e+00
       H -9.72779e-02 -1.18044e+00  1.27393e+00
       H  3.00926e+00 -1.51640e+00  3.00158e+00
14
# CELL(abcABC):   13.38377    13.38377    13.38377    90.00000    90.00000    90.00000  Traj: positions{angstrom} Step:          14  Bead:       0 
       O  5.40546e-01 -9.74450e-01 -2.17216e-01
       O  2.92420e+00 -8.41875e-01  1.50277e-01
       H  1.90939e-01 -1.24600e+00 -1.06961e+00
       H  1.74683e+00 -9.12569e-01 -9.37757e-02
       H  3.29253e+00 -1.58433e+00  6.32176e-01
       H  3.53429e+00 -6.07341e-01 -5.63924e-01
       H  4.06324e-02 -2.05774e-01  8.67714e-02
       H -2.43717e-01 -1.25299e-01  2.44482e+00
       H  3.23438e+00 -5.47909e-01  1.77580e+00
       O  2.63877e+00 -7.65958e-01  2.50949e+00
       O  2.53602e-01 -9.05329e-01  2.13994e+00
       H  1.45868e+00 -8.44494e-01  2.24176e+00
       H -9.85109e-02 -1.17782e+00  1.27439e+00
       H  3.01006e+00 -1.51439e+00  3.00203e+00
14
# CELL(abcABC):   13.38377    13.38377    13.38377    90.00000    90.00000    90.00000  Traj: positions{angstrom} Step:          16  Bead:       0 
       O  5.40447e-01 -9.74526e-01 -2.17161e-01
       O  2.92431e+00 -8.42723e-01  1.49540e-01
       H  1.91917e-01 -1.24330e+00 -1.06631e+00
       H  1.74883e+00 -9.12117e-01 -9.15650e-02
       H  3.29327e+00 -1.58458e+00  6.29124e-01
       H  3.53288e+00 -6.08408e-01 -5.59712e-01
       H  4.20490e-02 -2.07081e-01  8.59600e-02
       H -2.41555e-01 -1.26770e-01  2.44509e+00
       H  3.23198e+00 -5.49537e-01  1.77601e+00
       O  2.63869e+00 -7.64926e-01  2.50935e+00
       O  2.53574e-01 -9.05558e-01  2.14039e+00
       H  1.45855e+00 -8.44982e-01  2.23985e+00
       H -1.00051e-01 -1.17420e+00  1.27552e+00
       H  3.00977e+00 -1.51303e+00  3.00234e+00
14
# CELL(abcABC):   13.38377    13.38377    13.38377    90.00000    90.00000    90.00000  Traj: positions{angstrom} Step:          18  Bead:       0 
       O  5.40554e-01 -9.74725e-01 -2.16917e-01
       O  2.92444e+00 -8.43659e-01  1.48971e-01
       H  1.92702e-01 -1.24101e+00 -1.06438e+00
       H  1.75107e+00 -9.10901e-01 -8.93310e-02
       H  3.29349e+00 -1.58587e+00  6.26858e-01
       H  3.53089e+00 -6.08763e-01 -5.55080e-01
       H  4.47657e-02 -2.07832e-01  8.54640e-02
       H -2.39806e-01 -1.28668e-01  2.44465e+00
       H  3.22894e+00 -5.50810e-01  1.77706e+00
       O  2.63862e+00 -7.63758e-01  2.50888e+00
       O  2.53469e-01 -9.05750e-01  2.14071e+00
       H  1.45862e+00 -8.44066e-01  2.23924e+00
       H -1.02678e-01 -1.17098e+00  1.27739e+00
       H  3.00865e+00 -1.51258e+00  3.00205e+00
14
# CELL(abcABC):   13.38377    13.38377    13.38377    90.00000    90.00000    90.00000  Traj: positions{angstrom} Step:          20  Bead:       0 
       O  5.40853e-01 -9.75222e-01 -2.16727e-01
       O  2.92466e+00 -8.44668e-01  1.48539e-01
       H  1.93125e-01 -1.23880e+00 -1.06380e+00
       H  1.75277e+00 -9.10975e-01 -8.70909e-02
       H  3.29391e+00 -1.58709e+00  6.24930e-01
       H  3.52959e+00 -6.07565e-01 -5.51656e-01
       H  4.72544e-02 -2.06360e-01  8.42736e-02
       H -2.37787e-01 -1.30600e-01  2.44414e+00
       H  3.22667e+00 -5.51295e-01  1.77831e+00
       O  2.63829e+00 -7.62646e-01  2.50862e+00
       O  2.53309e-01 -9.05756e-01  2.14085e+00
       H  1.45898e+00 -8.42975e-01  2.23952e+00
       H -1.05426e-01 -1.16691e+00  1.27988e+00
       H  3.00703e+00 -1.51257e+00  3.00118e+00
14
# CELL(abcABC):   13.38377    13.38377    13.38377    90.00000    90.00000    90.00000  Traj: positions{angstrom} Step:          22  Bead:       0 
       O  5.41250e-01 -9.76004e-01 -2.16310e-01
       O  2.92479e+00 -8.45625e-01  1.48180e-01
       H  1.92680e-01 -1.23679e+00 -1.06490e+00
       H  1.75529e+00 -9.10508e-01 -8.70831e-02
       H  3.29374e+00 -1.58865e+00  6.24255e-01
       H  3.52976e+00 -6.04237e-01 -5.49303e-01
       H  4.83486e-02 -2.04061e-01  8.32541e-02
       H -2.36173e-01 -1.31877e-01  2.44424e+00
       H  3.22451e+00 -5.52265e-01  1.77808e+00
       O  2.63792e+00 -7.61406e-01  2.50833e+00
       O  2.53264e-01 -9.05862e-01  2.14096e+00
       H  1.45854e+00 -8.41601e-01  2.23929e+00
       H -1.08538e-01 -1.16301e+00  1.28316e+00
       H  3.00631e+00 -1.51253e+00  3.00073e+00
14
# CELL(abcABC):   13.38377    13.38377    13.38377    90.00000    90.00000    90.00000  Traj: positions{angstrom} Step:          24  Bead:       0 
       O  5.41791e-01 -9.76723e-01 -2.15614e-01
       O  2.92469e+00 -8.46488e-01  1.47546e-01
       H  1.91080e-01 -1.23596e+00 -1.06627e+00
       H  1.75776e+00 -9.09624e-01 -8.73352e-02
       H  3.29319e+00 -1.59132e+00  6.24934e-01
       H  3.53071e+00 -5.99531e-01 -5.48475e-01
       H  4.87364e-02 -2.01951e-01  8.17132e-02
       H -2.35354e-01 -1.33332e-01  2.44467e+00
       H  3.22202e+00 -5.54447e-01  1.77820e+00
       O  2.63782e+00 -7.60049e-01  2.50805e+00
       O  2.53189e-01 -9.05993e-01  2.14091e+00
       H  1.45809e+00 -8.40103e-01  2.23989e+00
       H -1.11663e-01 -1.16036e+00  1.28735e+00
       H  3.00566e+00 -1.51326e+00  3.00132e+00
14
# CELL(abcABC):   13.38377    13.38377    13.38377    90.00000    90.00000    90.00000  Traj: positions{angstrom} Step:          26  Bead:       0 
       O  5.42558e-01 -9.77466e-01 -2.14711e-01
       O  2.92424e+00 -8.47125e-01  1.46832e-01
       H  1.88858e-01 -1.23623e+00 -1.06846e+00
       H  1.76146e+00 -9.09844e-01 -8.84468e-02
       H  3.29289e+00 -1.59487e+00  6.25707e-01
       H  3.53288e+00 -5.94353e-01 -5.50077e-01
       H  4.88611e-02 -1.99250e-01  8.05801e-02
       H -2.34897e-01 -1.35060e-01  2.44509e+00
       H  3.21937e+00 -5.55923e-01  1.77778e+00
       O  2.63790e+00 -7.58599e-01  2.50786e+00
       O  2.52934e-01 -9.06209e-01  2.14091e+00
       H  1.45725e+00 -8.38084e-01  2.24054e+00
       H -1.14632e-01 -1.15899e+00  1.29145e+00
       H  3.00594e+00 -1.51497e+00  3.00173e+00
14
# CELL(abcABC):   13.38377    13.38377    13.38377    90.00000    90.00000    90.00000  Traj: positions{angstrom} Step:          28  Bead:       0 
       O  5.43170e-01 -9.78100e-01 -2.13627e-01
       O  2.92400e+00 -8.47870e-01  1.46109e-01
       H  1.85605e-01 -1.23685e+00 -1.07095e+00
       H  1.76514e+00 -9.10494e-01 -8.90360e-02
       H  3.29315e+00 -1.59914e+00  6.26219e-01
       H  3.53521e+00 -5.89129e-01 -5.52687e-01
       H  4.79385e-02 -1.95043e-01  8.06483e-02
       H -2.34374e-01 -1.37879e-01  2.44502e+00
       H  3.21809e+00 -5.57119e-01  1.77690e+00
       O  2.63795e+00 -7.57412e-01  2.50794e+00
       O  2.52602e-01 -9.06205e-01  2.14073e+00
       H  1.45631e+00 -8.34729e-01  2.23999e+00
       H -1.17191e-01 -1.15721e+00  1.29477e+00
       H  3.00667e+00 -1.51700e+00  3.00099e+00
14
# CELL(abcABC):   13.38377    13.38377    13.38377    90.00000    90.00000    90.00000  Traj: positions{angstrom} Step:          30  Bead:       0 
       O  5.43645e-01 -9.78671e-01 -2.12381e-01
       O  2.92374e+00 -8.48890e-01  1.45385e-01
       H  1.82446e-01 -1.23717e+00 -1.07406e+00
       H  1.76836e+00 -9.10323e-01 -8.96868e-02
       H  3.29260e+00 -1.60278e+00  6.26179e-01
       H  3.53697e+00 -5.83743e-01 -5.56426e-01
       H  4.75393e-02 -1.91191e-01  8.14029e-02
       H -2.33876e-01 -1.41259e-01  2.44423e+00
       H  3.21782e+00 -5.58006e-01  1.77537e+00
       O  2.63793e+00 -7.56392e-01  2.50781e+00
       O  2.52525e-01 -9.05803e-01  2.14069e+00
       H  1.45420e+00 -8.31910e-01  2.23998e+00
       H -1.19381e-01 -1.15551e+00  1.29830e+00
       H  3.00794e+00 -1.52002e+00  3.00084e+00
14
# CELL(abcABC):   13.38377    13.38377    13.38377    90.00000    90.00000    90.00000  Traj: positions{angstrom} Step:          32  Bead:       0 
       O  5.44217e-01 -9.79329e-01 -2.11314e-01
       O  2.92354e+00 -8.49871e-01  1.44800e-01
       H  1.79112e-01 -1.23816e+00 -1.07764e+00
       H  1.77027e+00 -9.09760e-01 -9.08553e-02
       H  3.29201e+00 -1.60627e+00  6.26040e-01
       H  3.53631e+00 -5.79109e-01 -5.60253e-01
       H  4.85951e-02 -1.88143e-01  8.20252e-02
       H -2.33951e-01 -1.45267e-01  2.44303e+00
       H  3.21790e+00 -5.59157e-01  1.77449e+00
       O  2.63792e+00 -7.55304e-01  2.50771e+00
       O  2.52326e-01 -9.05247e-01  2.14056e+00
       H  1.45297e+00 -8.29598e-01  2.24087e+00
       H -1.21237e-01 -1.15483e+00  1.30279e+00
       H  3.01005e+00 -1.52169e+00  3.00168e+00
14
# CELL(abcABC):   13.38377    13.38377    13.38377    90.00000    90.00000    90.00000  Traj: positions{angstrom} Step:          34  Bead:       0 
       O  5.44734e-01 -9.79865e-01 -2.10014e-01
       O  2.92355e+00 -8.50815e-01  1.43963e-01
       H  1.74929e-01 -1.24037e+00 -1.08043e+00
       H  1.77122e+00 -9.09672e-01 -9.21113e-02
       H  3.29205e+00 -1.60994e+00  6.26379e-01
       H  3.53464e+00 -5.74845e-01 -5.64261e-01
       H  4.95337e-02 -1.86075e-01  8.20812e-02
       H -2.34973e-01 -1.49488e-01  2.44231e+00
       H  3.21822e+00 -5.59904e-01  1.77295e+00
       O  2.63792e+00 -7.54201e-01  2.50770e+00
       O  2.52214e-01 -9.04714e-01  2.14047e+00
       H  1.45101e+00 -8.26875e-01  2.24105e+00
       H -1.23212e-01 -1.15492e+00  1.30648e+00
       H  3.01208e+00 -1.52235e+00  3.00199e+00
14
# CELL(abcABC):   13.38377    13.38377    13.38377    90.00000    90.00000    90.00000  Traj: positions{angstrom} Step:          36  Bead:       0 
       O  5.45156e-01 -9.80179e-01 -2.08768e-01
       O  2.92371e+00 -8.51734e-01  1.42874e-01
       H  1.71030e-01 -1.24326e+00 -1.08195e+00
       H  1.77152e+00 -9.08602e-01 -9.29918e-02
       H  3.29224e+00 -1.61294e+00  6.27124e-01
       H  3.53267e+00 -5.70196e-01 -5.67492e-01
       H  5.02152e-02 -1.85779e-01  8.14471e-02
       H -2.37071e-01 -1.54705e-01  2.44183e+00
       H  3.21807e+00 -5.59629e-01  1.77130e+00
       O  2.63784e+00 -7.53009e-01  2.50796e+00
       O  2.52365e-01 -9.04371e-01  2.14038e+00
       H  1.44835e+00 -8.24825e-01  2.24050e+00
       H -1.26026e-01 -1.15538e+00  1.30898e+00
       H  3.01413e+00 -1.52394e+00  3.00252e+00
14
# CELL(abcABC):   13.38377    13.38377    13.38377    90.00000    90.00000    90.00000  Traj: positions{angstrom} Step:          38  Bead:       0 
       O  5.45322e-01 -9.80476e-01 -2.07664e-01
       O  2.92378e+00 -8.52453e-01  1.41538e-01
       H  1.68287e-01 -1.24503e+00 -1.08289e+00
       H  1.77168e+00 -9.08881e-01 -9.36920e-02
       H  3.29264e+00 -1.61528e+00  6.26651e-01
       H  3.52961e+00 -5.66310e-01 -5.69414e-01
       H  5.05359e-02 -1.86879e-01  7.95799e-02
       H -2.39095e-01 -1.60022e-01  2.44138e+00
       H  3.21838e+00 -5.59524e-01  1.76933e+00
       O  2.63780e+00 -7.52134e-01  2.50837e+00
       O  2.52755e-01 -9.03772e-01  2.14055e+00
       H  1.44648e+00 -8.22680e-01  2.24059e+00
       H -1.28963e-01 -1.15558e+00  1.31059e+00
       H  3.01616e+00 -1.52633e+00  3.00356e+00
14
# CELL(abcABC):   13.38377    13.38377    13.38377    90.00000    90.00000    90.00000  Traj: positions{angstrom} Step:          40  Bead:       0 
       O  5.45432e-01 -9.80789e-01 -2.06726e-01
       O  2.92395e+00 -8.53068e-01  1.40030e-01
       H  1.67381e-01 -1.24632e+00 -1.08169e+00
       H  1.77202e+00 -9.09423e-01 -9.34059e-02
       H  3.29307e+00 -1.61715e+00  6.25893e-01
       H  3.52590e+00 -5.64480e-01 -5.71483e-01
       H  5.12393e-02 -1.89906e-01  7.55059e-02
       H -2.41445e-01 -1.64632e-01  2.44159e+00
       H  3.21899e+00 -5.60308e-01  1.76693e+00
       O  2.63752e+00 -7.51463e-01  2.50870e+00
       O  2.53204e-01 -9.02856e-01  2.14103e+00
       H  1.44513e+00 -8.19522e-01  2.24180e+00
       H -1.33036e-01 -1.15572e+00  1.31133e+00
       H  3.01943e+00 -1.52950e+00  3.00550e+00
14
# CELL(abcABC):   13.38377    13.38377    13.38377    90.00000    90.00000    90.00000  Traj: positions{angstrom} Step:          42  Bead:       0 
       O  5.45410e-01 -9.81242e-01 -2.05727e-01
       O  2.92420e+00 -8.53664e-01  1.38515e-01
       H  1.66575e-01 -1.24853e+00 -1.07908e+00
       H  1.77145e+00 -9.10394e-01 -9.35299e-02
       H  3.29353e+00 -1.61851e+00  6.23441e-01
       H  3.52168e+00 -5.62720e-01 -5.71752e-01
       H  5.26729e-02 -1.94609e-01  6.95459e-02
       H -2.43256e-01 -1.69732e-01  2.44265e+00
       H  3.21929e+00 -5.60487e-01  1.76382e+00
       O  2.63737e+00 -7.50845e-01  2.50898e+00
       O  2.53489e-01 -9.01569e-01  2.14156e+00
       H  1.44388e+00 -8.16562e-01  2.24442e+00
       H -1.36097e-01 -1.15533e+00  1.31115e+00
       H  3.02320e+00 -1.53369e+00  3.00651e+00
14
# CELL(abcABC):   13.38377    13.38377    13.38377    90.00000    90.00000    90.00000  Traj: positions{angstrom} Step:          44  Bead:       0 
       O  5.45280e-01 -9.81685e-01 -2.04886e-01
       O  2.92435e+00 -8.53938e-01  1.36918e-01
       H  1.64939e-01 -1.25179e+00 -1.07397e+00
       H  1.77089e+00 -9.11439e-01 -9.37819e-02
       H  3.29332e+00 -1.61961e+00  6.20762e-01
       H  3.51807e+00 -5.63640e-01 -5.70287e-01
       H  5.48916e-02 -1.99826e-01  6.41995e-02
       H -2.44144e-01 -1.74493e-01  2.44362e+00
       H  3.21901e+00 -5.60894e-01  1.76174e+00
       O  2.63740e+00 -7.50030e-01  2.50942e+00
       O  2.53692e-01 -9.00574e-01  2.14185e+00
       H  1.44318e+00 -8.13283e-01  2.24767e+00
       H -1.37949e-01 -1.15407e+00  1.31147e+00
       H  3.02672e+00 -1.53886e+00  3.00631e+00
14
# CELL(abcABC):   13.38377    13.38377    13.38377    90.00000    90.00000    90.00000  Traj: positions{angstrom} Step:          46  Bead:       0 
       O  5.44937e-01 -9.82152e-01 -2.04045e-01
       O  2.92438e+00 -8.54255e-01  1.35042e-01
       H  1.65157e-01 -1.25409e+00 -1.06649e+00
       H  1.77148e+00 -9.12260e-01 -9.26372e-02
       H  3.29348e+00 -1.61983e+00  6.16710e-01
       H  3.51499e+00 -5.65984e-01 -5.69301e-01
       H  5.71431e-02 -2.04533e-01  5.91337e-02
       H -2.44758e-01 -1.79476e-01  2.44389e+00
       H  3.21942e+00 -5.61837e-01  1.76013e+00
       O  2.63740e+00 -7.49493e-01  2.51014e+00
       O  2.53922e-01 -8.99368e-01  2.14210e+00
       H  1.44313e+00 -8.08559e-01  2.25039e+00
       H -1.40103e-01 -1.15269e+00  1.31102e+00
       H  3.03028e+00 -1.54390e+00  3.00581e+00
14
# CELL(abcABC):   13.38377    13.38377    13.38377    90.00000    90.00000    90.00000  Traj: positions{angstrom} Step:          48  Bead:       0 
       O  5.44439e-01 -9.82566e-01 -2.03302e-01
       O  2.92435e+00 -8.54468e-01  1.33359e-01
       H  1.66875e-01 -1.25672e+00 -1.05887e+00
       H  1.77202e+00 -9.12029e-01 -9.10691e-02
       H  3.29313e+00 -1.61861e+00  6.11848e-01
       H  3.51171e+00 -5.69691e-01 -5.69444e-01
       H  5.86498e-02 -2.08438e-01  5.42825e-02
       H -2.45111e-01 -1.85720e-01  2.44466e+00
       H  3.21998e+00 -5.63178e-01  1.75862e+00
       O  2.63715e+00 -7.49220e-01  2.51067e+00
       O  2.54509e-01 -8.98014e-01  2.14251e+00
       H  1.44382e+00 -8.03238e-01  2.25337e+00
       H -1.41957e-01 -1.15141e+00  1.31006e+00
       H  3.03404e+00 -1.54998e+00  3.00525e+00
14
# CELL(abcABC):   13.38377    13.38377    13.38377    90.00000    90.00000    90.00000  Traj: positions{angstrom} Step:          50  Bead:       0 
       O  5.43685e-01 -9.82980e-01 -2.02768e-01
       O  2.92417e+00 -8.54765e-01  1.31789e-01
       H  1.69432e-01 -1.25980e+00 -1.04933e+00
       H  1.77292e+00 -9.10711e-01 -9.06596e-02
       H  3.29254e+00 -1.61677e+00  6.06707e-01
       H  3.50927e+00 -5.73276e-01 -5.70860e-01
       H  5.87844e-02 -2.09913e-01  5.01557e-02
       H -2.45736e-01 -1.92191e-01  2.44507e+00
       H  3.22094e+00 -5.63977e-01  1.75803e+00
       O  2.63702e+00 -7.49116e-01  2.51118e+00
       O  2.55341e-01 -8.96625e-01  2.14300e+00
       H  1.44561e+00 -7.97512e-01  2.25621e+00
       H -1.45130e-01 -1.15141e+00  1.30968e+00
       H  3.03838e+00 -1.55588e+00  3.00426e+00
14
# CELL(abcABC):   13.38377    13.38377    13.38377    90.00000    90.00000    90.00000  Traj: positions{angstrom} Step:          52  Bead:       0 
       O  5.42953e-01 -9.83495e-01 -2.02394e-01
       O  2.92379e+00 -8.55050e-01  1.30318e-01
       H  1.72367e-01 -1.26396e+00 -1.04045e+00
       H  1.77352e+00 -9.09548e-01 -9.03017e-02
       H  3.29260e+00 -1.61452e+00  6.01782e-01
       H  3.50871e+00 -5.76547e-01 -5.72889e-01
       H  5.68757e-02 -2.08854e-01  4.70248e-02
       H -2.46198e-01 -1.99099e-01  2.44487e+00
       H  3.22294e+00 -5.64572e-01  1.75795e+00
       O  2.63697e+00 -7.48912e-01  2.51174e+00
       O  2.56211e-01 -8.95344e-01  2.14343e+00
       H  1.44726e+00 -7.92288e-01  2.26045e+00
       H -1.48767e-01 -1.15070e+00  1.31009e+00
       H  3.04222e+00 -1.56221e+00  3.00254e+00
14
# CELL(abcABC):   13.38377    13.38377    13.38377    90.00000    90.00000    90.00000  Traj: positions{angstrom} Step:          54  Bead:       0 
       O  5.42539e-01 -9.84232e-01 -2.01965e-01
       O  2.92338e+00 -8.55197e-01  1.28905e-01
       H  1.75508e-01 -1.26965e+00 -1.03344e+00
       H  1.77399e+00 -9.08818e-01 -9.06013e-02
       H  3.29261e+00 -1.61186e+00  5.95650e-01
       H  3.50877e+00 -5.79904e-01 -5.75471e-01
       H  5.34507e-02 -2.03306e-01  4.44580e-02
       H -2.46795e-01 -2.05343e-01  2.44515e+00
       H  3.22410e+00 -5.64872e-01  1.75837e+00
       O  2.63681e+00 -7.48743e-01  2.51220e+00
       O  2.57000e-01 -8.94148e-01  2.14394e+00
       H  1.44906e+00 -7.87021e-01  2.26478e+00
       H -1.53043e-01 -1.14946e+00  1.31130e+00
       H  3.04705e+00 -1.56971e+00  3.00093e+00
14
# CELL(abcABC):   13.38377    13.38377    13.38377    90.00000    90.00000    90.00000  Traj: positions{angstrom} Step:          56  Bead:       0 
       O  5.42024e-01 -9.84894e-01 -2.01401e-01
       O  2.92301e+00 -8.55393e-01  1.27314e-01
       H  1.78293e-01 -1.27687e+00 -1.02968e+00
       H  1.77348e+00 -9.08737e-01 -9.16223e-02
       H  3.29361e+00 -1.61006e+00  5.89649e-01
       H  3.50928e+00 -5.84022e-01 -5.78411e-01
       H  4.90700e-02 -1.95717e-01  4.31735e-02
       H -2.46566e-01 -2.11901e-01  2.44561e+00
       H  3.22519e+00 -5.65030e-01  1.75890e+00
       O  2.63663e+00 -7.48623e-01  2.51274e+00
       O  2.57871e-01 -8.92799e-01  2.14457e+00
       H  1.44960e+00 -7.82161e-01  2.26929e+00
       H -1.56641e-01 -1.14794e+00  1.31261e+00
       H  3.05243e+00 -1.57718e+00  2.99942e+00
14
# CELL(abcABC):   13.38377    13.38377    13.38377    90.00000    90.00000    90.00000  Traj: positions{angstrom} Step:          58  Bead:       0 
       O  5.41587e-01 -9.85630e-01 -2.00700e-01
       O  2.92238e+00 -8.55479e-01  1.25641e-01
       H  1.80177e-01 -1.28463e+00 -1.02764e+00
       H  1.77204e+00 -9.09357e-01 -9.23373e-02
       H  3.29553e+00 -1.60872e+00  5.84715e-01
       H  3.51083e+00 -5.88473e-01 -5.83429e-01
       H  4.57164e-02 -1.86344e-01  4.25473e-02
       H -2.45524e-01 -2.18181e-01  2.44595e+00
       H  3.22718e+00 -5.65439e-01  1.76023e+00
       O  2.63630e+00 -7.48573e-01  2.51320e+00
       O  2.58939e-01 -8.91337e-01  2.14511e+00
       H  1.45008e+00 -7.78215e-01  2.27485e+00
       H -1.60377e-01 -1.14669e+00  1.31432e+00
       H  3.05724e+00 -1.58453e+00  2.99917e+00
14
# CELL(abcABC):   13.38377    13.38377    13.38377    90.00000    90.00000    90.00000  Traj: positions{angstrom} Step:          60  Bead:       0 
       O  5.41585e-01 -9.86083e-01 -1.99900e-01
       O  2.92149e+00 -8.55803e-01  1.24031e-01
       H  1.80844e-01 -1.29285e+00 -1.02675e+00
       H  1.76927e+00 -9.10235e-01 -9.37169e-02
       H  3.29812e+00 -1.60799e+00  5.80209e-01
       H  3.51433e+00 -5.92216e-01 -5.89930e-01
       H  4.31547e-02 -1.76693e-01  4.18250e-02
       H -2.43683e-01 -2.23857e-01  2.44577e+00
       H  3.22846e+00 -5.65836e-01  1.76253e+00
       O  2.63580e+00 -7.48508e-01  2.51357e+00
       O  2.59953e-01 -8.89795e-01  2.14567e+00
       H  1.45065e+00 -7.75576e-01  2.28092e+00
       H -1.64269e-01 -1.14624e+00  1.31579e+00
       H  3.06209e+00 -1.59226e+00  2.99991e+00
14
# CELL(abcABC):   13.38377    13.38377    13.38377    90.00000    90.00000    90.00000  Traj: positions{angstrom} Step:          62  Bead:       0 
       O  5.41742e-01 -9.86478e-01 -1.98973e-01
       O  2.92005e+00 -8.56289e-01  1.22470e-01
       H  1.80274e-01 -1.30193e+00 -1.02787e+00
       H  1.76612e+00 -9.10283e-01 -9.52905e-02
       H  3.30080e+00 -1.60884e+00  5.76907e-01
       H  3.51869e+00 -5.96107e-01 -5.97514e-01
       H  4.18227e-02 -1.68950e-01  4.05796e-02
       H -2.42202e-01 -2.29894e-01  2.44627e+00
       H  3.22966e+00 -5.67368e-01  1.76466e+00
       O  2.63578e+00 -7.48250e-01  2.51391e+00
       O  2.60786e-01 -8.88052e-01  2.14634e+00
       H  1.45196e+00 -7.73028e-01  2.28675e+00
       H -1.67806e-01 -1.14589e+00  1.31641e+00
       H  3.06711e+00 -1.59926e+00  2.99963e+00
14
# CELL(abcABC):   13.38377    13.38377    13.38377    90.00000    90.00000    90.00000  Traj: positions{angstrom} Step:          64  Bead:       0 
       O  5.41831e-01 -9.86868e-01 -1.97922e-01
       O  2.91857e+00 -8.56624e-01  1.20934e-01
       H  1.80591e-01 -1.31164e+00 -1.02951e+00
       H  1.76303e+00 -9.10606e-01 -9.70008e-02
       H  3.30275e+00 -1.61103e+00  5.74323e-01
       H  3.52246e+00 -6.00313e-01 -6.05446e-01
       H  4.23545e-02 -1.63150e-01  3.93133e-02
       H -2.40800e-01 -2.35758e-01  2.44705e+00
       H  3.23171e+00 -5.68516e-01  1.76705e+00
       O  2.63563e+00 -7.47941e-01  2.51441e+00
       O  2.61541e-01 -8.86414e-01  2.14669e+00
       H  1.45364e+00 -7.69703e-01  2.29222e+00
       H -1.70424e-01 -1.14401e+00  1.31690e+00
       H  3.07353e+00 -1.60620e+00  2.99991e+00
14
# CELL(abcABC):   13.38377    13.38377    13.38377    90.00000    90.00000    90.00000  Traj: positions{angstrom} Step:          66  Bead:       0 
       O  5.41884e-01 -9.87033e-01 -1.96848e-01
       O  2.91721e+00 -8.56766e-01  1.19488e-01
       H  1.81519e-01 -1.32134e+00 -1.03182e+00
       H  1.75969e+00 -9.11166e-01 -9.79672e-02
       H  3.30430e+00 -1.61284e+00  5.72385e-01
       H  3.52499e+00 -6.04708e-01 -6.13988e-01
       H  4.39711e-02 -1.59893e-01  3.76059e-02
       H -2.40179e-01 -2.42494e-01  2.44748e+00
       H  3.23451e+00 -5.68231e-01  1.76907e+00
       O  2.63544e+00 -7.47787e-01  2.51494e+00
       O  2.62228e-01 -8.85007e-01  2.14702e+00
       H  1.45596e+00 -7.65942e-01  2.29628e+00
       H -1.72431e-01 -1.14156e+00  1.31837e+00
       H  3.07947e+00 -1.61267e+00  2.99970e+00
14
# CELL(abcABC):   13.38377    13.38377    13.38377    90.00000    90.00000    90.00000  Traj: positions{angstrom} Step:          68  Bead:       0 
       O  5.42047e-01 -9.86966e-01 -1.95662e-01
       O  2.91593e+00 -8.56709e-01  1.17672e-01
       H  1.81762e-01 -1.33163e+00 -1.03371e+00
       H  1.75707e+00 -9.12034e-01 -9.78475e-02
       H  3.30543e+00 -1.61524e+00  5.71975e-01
       H  3.52695e+00 -6.09673e-01 -6.20936e-01
       H  4.64944e-02 -1.58292e-01  3.58623e-02
       H -2.39260e-01 -2.49502e-01  2.44799e+00
       H  3.23702e+00 -5.68762e-01  1.77040e+00
       O  2.63515e+00 -7.47758e-01  2.51546e+00
       O  2.62960e-01 -8.83567e-01  2.14740e+00
       H  1.45780e+00 -7.61970e-01  2.29916e+00
       H -1.74436e-01 -1.14026e+00  1.32024e+00
       H  3.08361e+00 -1.61877e+00  2.99955e+00
14
# CELL(abcABC):   13.38377    13.38377    13.38377    90.00000    90.00000    90.00000  Traj: positions{angstrom} Step:          70  Bead:       0 
       O  5.42180e-01 -9.86701e-01 -1.94478e-01
       O  2.91477e+00 -8.56618e-01  1.15704e-01
       H  1.82395e-01 -1.34125e+00 -1.03520e+00
       H  1.75578e+00 -9.12566e-01 -9.73651e-02
       H  3.30648e+00 -1.61746e+00  5.72677e-01
       H  3.52724e+00 -6.15959e-01 -6.27408e-01
       H  5.06867e-02 -1.59332e-01  3.40304e-02
       H -2.38327e-01 -2.55459e-01  2.44774e+00
       H  3.23975e+00 -5.69134e-01  1.77185e+00
       O  2.63473e+00 -7.47765e-01  2.51605e+00
       O  2.63736e-01 -8.82155e-01  2.14787e+00
       H  1.45935e+00 -7.58506e-01  2.30219e+00
       H -1.77638e-01 -1.14038e+00  1.32064e+00
       H  3.08745e+00 -1.62404e+00  2.99922e+00
14
# CELL(abcABC):   13.38377    13.38377    13.38377    90.00000    90.00000    90.00000  Traj: positions{angstrom} Step:          72  Bead:       0 
       O  5.42261e-01 -9.86285e-01 -1.93606e-01
       O  2.91372e+00 -8.56460e-01  1.13693e-01
       H  1.82839e-01 -1.35040e+00 -1.03564e+00
       H  1.75443e+00 -9.13211e-01 -9.69928e-02