14
# CELL(abcABC):   25.29166    25.29166    25.29166    90.00000    90.00000    90.00000  Traj: v_centroid Step:           0  Bead:       0 
       O  0.00000e+00  0.00000e+00  0.00000e+00
       O  0.00000e+00  0.00000e+00  0.00000e+00
       H  0.00000e+00  0.00000e+00  0.00000e+00
       H  0.00000e+00  0.00000e+00  0.00000e+00
       H  0.00000e+00  0.00000e+00  0.00000e+00
       H  0.00000e+00  0.00000e+00  0.00000e+00
       H  0.00000e+00  0.00000e+00  0.00000e+00
       H  0.00000e+00  0.00000e+00  0.00000e+00
       H  0.00000e+00  0.00000e+00  0.00000e+00
       O  0.00000e+00  0.00000e+00  0.00000e+00
       O  0.00000e+00  0.00000e+00  0.00000e+00
       H  0.00000e+00  0.00000e+00  0.00000e+00
       H  0.00000e+00  0.00000e+00  0.00000e+00
       H  0.00000e+00  0.00000e+00  0.00000e+00
14
# CELL(abcABC):   25.29166    25.29166    25.29166    90.00000    90.00000    90.00000  Traj: v_centroid Step:           2  Bead:       0 
       O  1.66833e-06 -1.28712e-05 -1.15646e-05
       O -1.17525e-05  1.71901e-06  5.11273e-07
       H -3.32695e-05  5.53018e-05 -3.86693e-05
       H  3.40661e-05 -9.33919e-05  1.34466e-04
       H -9.44481e-05  1.16020e-04 -3.30612e-05
       H  9.19303e-05  3.48265e-05  7.17074e-05
       H -1.51378e-04 -1.25642e-04  2.87946e-05
       H -5.62141e-05  1.16507e-04  3.90100e-05
       H -9.44601e-05 -3.58098e-05 -8.35251e-05
       O  1.84620e-05 -4.58957e-06  1.68367e-05
       O  3.30345e-06 -3.90361e-06  1.61900e-06
       H -2.06841e-05 -1.12576e-05 -1.66929e-04
       H  1.70866e-04  1.48356e-04 -1.91810e-05
       H -3.18292e-05  1.06929e-04 -5.01133e-05
14
# CELL(abcABC):   25.29166    25.29166    25.29166    90.00000    90.00000    90.00000  Traj: v_centroid Step:           4  Bead:       0 
       O  6.17692e-06  3.85762e-06 -2.25242e-05
       O -6.15159e-06 -7.02383e-06  2.06325e-06
       H  1.00261e-04  1.06620e-05 -1.52371e-05
       H -3.75182e-06 -1.27125e-04  5.06645e-05
       H -6.30561e-05  2.21490e-04 -1.04785e-04
       H  1.34753e-04  7.62057e-05  5.52738e-05
       H -1.77710e-04 -4.29912e-05 -4.68138e-05
       H -8.86384e-05  4.47557e-05  2.45880e-05
       H -4.52390e-05 -1.37626e-05 -6.30549e-05
       O  8.71306e-06  9.53280e-06  2.73783e-05
       O -3.67970e-06 -2.15357e-05  1.34115e-05
       H  9.32568e-06  1.68431e-05 -1.23868e-04
       H  1.40218e-04  6.77486e-05  1.05229e-05
       H -8.64608e-05 -1.30411e-05 -1.09978e-04
14
# CELL(abcABC):   25.29166    25.29166    25.29166    90.00000    90.00000    90.00000  Traj: v_centroid Step:           6  Bead:       0 
       O  6.65823e-06  1.62967e-05 -1.80467e-05
       O -2.22382e-05 -1.67605e-05 -8.98377e-06
       H  9.68121e-05  7.64635e-05  1.65106e-04
       H -7.00669e-05 -1.60412e-04  2.56354e-05
       H  7.48708e-06  5.63010e-05 -2.25530e-04
       H  1.31725e-04  1.20004e-04  2.82631e-05
       H -2.88587e-05 -1.35987e-04 -6.37694e-06
       H -3.43307e-05  5.61631e-06 -2.54495e-05
       H -4.54258e-05 -1.21902e-04 -9.55081e-05
       O  3.95573e-06  2.62075e-05  3.65909e-05
       O -3.42476e-06 -2.28553e-05  2.09050e-05
       H  1.11692e-04 -4.66810e-05 -1.83918e-04
       H  1.25872e-04  1.08519e-04 -6.29148e-05
       H -5.60286e-05  5.22281e-05 -1.02896e-04
14
# CELL(abcABC):   25.29166    25.29166    25.29166    90.00000    90.00000    90.00000  Traj: v_centroid Step:           8  Bead:       0 
       O -7.99738e-07  2.84933e-05 -1.15346e-05
       O -1.62463e-05 -3.62060e-05 -4.85310e-05
       H  1.56961e-04  2.25206e-04  1.42273e-04
       H  3.69928e-05 -3.78460e-05  4.16240e-05
       H -1.45854e-05  9.17852e-05 -2.60878e-04
       H  1.18567e-04  2.70128e-05  1.37532e-04
       H  4.33777e-05 -1.80475e-04 -5.01631e-05
       H  1.36619e-05 -8.25326e-06 -1.39552e-04
       H -1.62385e-04 -2.49602e-04 -4.96278e-05
       O  1.09938e-05  3.92061e-05  5.67034e-05
       O -3.75378e-06 -2.56334e-05  2.73468e-05
       H  1.99799e-05 -6.10138e-05 -2.19872e-04
       H  6.39980e-05  7.54296e-05 -6.84378e-05
       H -1.20913e-04  2.47376e-05  8.63846e-05
14
# CELL(abcABC):   25.29166    25.29166    25.29166    90.00000    90.00000    90.00000  Traj: v_centroid Step:          10  Bead:       0 
       O -5.63933e-06  1.13887e-05 -4.32754e-06
       O  6.41782e-06 -6.97640e-05 -6.36844e-05
       H  1.09020e-04  3.01502e-04  1.63366e-04
       H  8.27412e-05  9.17990e-05  1.75593e-04
       H -1.09318e-04  2.27525e-04 -3.61699e-04
       H -1.70014e-05 -4.30003e-06  2.87938e-04
       H  6.24312e-05 -2.02000e-04 -1.56959e-04
       H  2.64327e-05 -7.22972e-05 -9.98394e-06
       H -2.25467e-04 -2.59505e-04 -4.00550e-06
       O  1.11342e-05  5.69831e-05  3.49518e-05
       O -6.80497e-06 -2.27020e-05  3.76928e-05
       H  9.63714e-06 -1.05937e-04 -1.67960e-04
       H  1.89133e-05  1.44149e-04 -8.79016e-05
       H -3.84650e-05  2.61521e-04  8.80767e-05
14
# CELL(abcABC):   25.29166    25.29166    25.29166    90.00000    90.00000    90.00000  Traj: v_centroid Step:          12  Bead:       0 
       O -1.94125e-06 -6.28755e-06 -1.79585e-06
       O -2.36393e-05 -5.76683e-05 -4.89620e-05
       H  1.12893e-04  3.00340e-04  2.71446e-04
       H  1.24530e-04  3.72572e-05  1.80560e-04
       H -4.12512e-05  1.17426e-04 -3.25473e-04
       H -7.00644e-05 -9.05745e-05  2.65989e-04
       H  6.73024e-05 -2.16158e-04 -1.54593e-04
       H  1.19343e-04 -6.91967e-05 -1.36116e-04
       H -1.82876e-04 -2.38760e-04  1.07930e-04
       O  1.70956e-05  7.05224e-05  1.59136e-05
       O  3.35556e-06 -1.50537e-05  3.27022e-05
       H -4.73313e-05 -1.00936e-04 -2.09092e-04
       H -8.81800e-05  1.85048e-04 -1.70637e-05
       H  8.70549e-05  2.10272e-04  5.04170e-05
14
# CELL(abcABC):   25.29166    25.29166    25.29166    90.00000    90.00000    90.00000  Traj: v_centroid Step:          14  Bead:       0 
       O  3.45356e-06 -1.19079e-06 -1.26465e-06
       O -1.65176e-05 -7.34837e-05 -6.05851e-05
       H  1.39670e-04  3.06723e-04  3.12888e-04
       H  1.23183e-04  7.03332e-07  1.76387e-04
       H  4.45674e-05  4.79931e-05 -3.02271e-04
       H -1.76810e-04 -1.62178e-04  3.54625e-04
       H  1.15077e-04 -1.44473e-04 -9.57908e-05
       H  1.47989e-04 -1.37796e-04  2.12040e-06
       H -2.11799e-04 -1.96402e-04  6.15965e-05
       O -4.22941e-06  8.50602e-05  3.00298e-06
       O  9.03680e-06 -1.81179e-05  3.15111e-05
       H  2.43119e-05 -6.00387e-05 -1.74769e-04
       H -7.56839e-05  2.86280e-04  4.85910e-05
       H  5.54765e-07  1.81923e-04  5.05312e-05
14
# CELL(abcABC):   25.29166    25.29166    25.29166    90.00000    90.00000    90.00000  Traj: v_centroid Step:          16  Bead:       0 
       O -8.21600e-06 -1.55703e-05  1.40828e-05
       O  1.72307e-05 -8.21617e-05 -6.78854e-05
       H  1.04793e-04  2.22996e-04  2.37078e-04
       H  1.97291e-04  8.30230e-05  1.92741e-04
       H  5.86223e-05 -7.28693e-05 -2.55397e-04
       H -1.02649e-04 -4.50770e-05  4.23329e-04
       H  1.99510e-04 -1.04111e-04 -7.86831e-05
       H  1.75695e-04 -1.48790e-04 -2.80505e-05
       H -2.62459e-04 -1.51423e-04  1.23633e-05
       O -8.76941e-06  1.04507e-04 -3.08231e-05
       O -7.61814e-06 -1.65444e-05  4.35952e-05
       H -1.68647e-05 -2.41768e-05 -8.68512e-05
       H -2.02803e-04  3.19263e-04  2.03684e-04
       H -3.41034e-05  7.62398e-05  3.10803e-05
14
# CELL(abcABC):   25.29166    25.29166    25.29166    90.00000    90.00000    90.00000  Traj: v_centroid Step:          18  Bead:       0 
       O  3.15328e-05 -2.74840e-05  2.97706e-05
       O  7.88238e-06 -8.72742e-05 -4.75566e-05
       H -1.53236e-05  2.19471e-04  1.17715e-04
       H  1.45475e-04  5.35559e-05  1.76431e-04
       H  2.80559e-05 -1.23315e-04 -1.79378e-04
       H -2.35977e-04  2.29211e-05  3.79857e-04
       H  2.40879e-04  2.29970e-05 -1.70168e-05
       H  1.36268e-04 -2.01124e-04 -7.06995e-05
       H -2.27796e-04 -4.36394e-05  1.05753e-04
       O -2.56319e-05  1.09549e-04 -4.88078e-05
       O  6.97444e-06 -1.78101e-05  3.09024e-05
       H  1.59952e-05  7.58516e-05  3.23492e-05
       H -2.60531e-04  3.00637e-04  1.42957e-04
       H -1.56541e-04  3.80319e-05 -1.21426e-04
14
# CELL(abcABC):   25.29166    25.29166    25.29166    90.00000    90.00000    90.00000  Traj: v_centroid Step:          20  Bead:       0 
       O  3.26383e-05 -5.81730e-05  1.55373e-05
       O  1.16197e-05 -8.75020e-05 -2.85316e-05
       H  7.15432e-05  1.92726e-04  3.00813e-05
       H  1.62301e-04  9.18387e-07  7.64092e-05
       H  1.57436e-05 -1.43745e-04 -9.64535e-05
       H  3.61222e-05  1.90388e-04  2.11326e-04
       H  1.24028e-04  2.14430e-04 -1.01819e-04
       H  1.90510e-04 -1.11390e-04 -8.03577e-06
       H -2.02814e-04 -7.77552e-05  6.27014e-05
       O -3.41352e-05  1.03264e-04 -2.35382e-05
       O -1.21739e-05 -2.04493e-06  7.81085e-06
       H -3.82586e-05  1.07273e-04  1.60659e-05
       H -2.39317e-04  3.64122e-04  2.73711e-04
       H -8.73001e-05 -3.13011e-05 -8.07721e-06
14
# CELL(abcABC):   25.29166    25.29166    25.29166    90.00000    90.00000    90.00000  Traj: v_centroid Step:          22  Bead:       0 
       O  4.03692e-05 -7.94939e-05  4.92219e-05
       O  4.96058e-06 -7.69828e-05 -3.87762e-05
       H -7.36293e-05  1.39207e-04 -1.14465e-04
       H  2.40523e-04  6.95178e-05 -2.47290e-05
       H -5.13665e-05 -1.64349e-04  1.28416e-05
       H  6.03398e-05  3.79097e-04  1.41351e-04
       H  7.46478e-05  1.93461e-04 -7.67201e-05
       H  9.74589e-05 -1.59302e-04 -6.11635e-06
       H -2.10821e-04 -1.30610e-04 -2.42620e-05
       O -1.98287e-05  1.16228e-04 -3.31602e-05
       O -8.48762e-06 -1.37218e-05  6.77728e-06
       H -4.82252e-05  1.83823e-04  1.67841e-05
       H -2.98296e-04  3.42064e-04  3.09188e-04
       H -6.06920e-05  3.78896e-06  1.91049e-05
14
# CELL(abcABC):   25.29166    25.29166    25.29166    90.00000    90.00000    90.00000  Traj: v_centroid Step:          24  Bead:       0 
       O  5.29695e-05 -6.80479e-05  7.03474e-05
       O -2.56772e-05 -6.88677e-05 -5.37570e-05
       H -1.74852e-04  3.45943e-05 -1.58676e-04
       H  2.62202e-04  3.27820e-05 -1.58439e-05
       H -7.64997e-05 -2.95585e-04  4.95951e-05
       H  1.96617e-04  4.93755e-04 -1.82487e-05
       H  2.56951e-05  2.01423e-04 -1.51194e-04
       H  6.05200e-05 -1.57577e-04  2.56191e-05
       H -2.40989e-04 -1.68316e-04  1.14929e-05
       O  6.21842e-06  1.29069e-04 -2.64866e-05
       O -1.30129e-05 -1.34818e-05 -4.41269e-06
       H -2.24865e-05  1.48216e-04  6.36006e-05
       H -2.60596e-04  1.90736e-04  3.35556e-04
       H -9.49819e-05 -1.41475e-04  8.52293e-05
14
# CELL(abcABC):   25.29166    25.29166    25.29166    90.00000    90.00000    90.00000  Traj: v_centroid Step:          26  Bead:       0 
       O  7.34708e-05 -6.04599e-05  9.32135e-05
       O -3.15571e-05 -6.62701e-05 -6.71556e-05
       H -2.10702e-04 -6.45594e-05 -2.51893e-04
       H  3.78298e-04 -4.93902e-05 -9.09856e-05
       H  2.69933e-05 -3.27723e-04  6.29288e-05
       H  1.94836e-04  4.72071e-04 -2.14465e-04
       H -2.96307e-05  2.63265e-04 -3.32045e-05
       H  5.42320e-05 -1.87317e-04  1.36002e-05
       H -2.17260e-04 -1.38432e-04 -1.22965e-04
       O  8.50560e-06  1.33618e-04  3.47026e-06
       O -4.24573e-05 -2.00872e-05 -1.12713e-05
       H -9.47379e-05  2.52841e-04  5.79969e-06
       H -2.58201e-04  1.53070e-04  3.74894e-04
       H  2.97896e-05 -1.64311e-04 -3.35065e-05
14
# CELL(abcABC):   25.29166    25.29166    25.29166    90.00000    90.00000    90.00000  Traj: v_centroid Step:          28  Bead:       0 
       O  4.59739e-05 -6.25742e-05  1.08050e-04
       O -2.99802e-05 -6.89166e-05 -6.28382e-05
       H -3.18433e-04 -8.34788e-05 -2.41294e-04
       H  3.17480e-04 -6.70848e-05 -5.40316e-05
       H -4.82987e-05 -3.25648e-04  1.46884e-05
       H  2.05024e-04  5.04865e-04 -2.98790e-04
       H -6.64388e-05  3.77780e-04  3.79684e-05
       H  6.29461e-05 -2.67211e-04 -1.03042e-05
       H -6.13669e-05 -5.31722e-05 -8.42890e-05
       O  2.06414e-06  9.82843e-05 -1.05957e-05
       O -1.29693e-05  1.23591e-05 -1.98507e-06
       H -1.36709e-04  3.29681e-04 -4.48734e-05
       H -1.38087e-04  1.23998e-04  2.64270e-04
       H  1.03110e-04 -2.08810e-04 -1.01312e-04
14
# CELL(abcABC):   25.29166    25.29166    25.29166    90.00000    90.00000    90.00000  Traj: v_centroid Step:          30  Bead:       0 
       O  5.72809e-05 -5.11380e-05  1.14887e-04
       O -1.90735e-05 -9.07565e-05 -5.11064e-05
       H -2.96722e-04 -1.01334e-04 -3.21084e-04
       H  2.17632e-04  9.88551e-05 -1.34913e-04
       H -8.74770e-05 -3.18472e-04 -5.47810e-05
       H  1.70139e-05  4.40113e-04 -3.24871e-04
       H -4.49828e-06  2.97199e-04  1.09342e-04
       H  6.82923e-05 -3.19841e-04 -9.03564e-05
       H  2.18960e-05 -1.00345e-04 -2.02524e-04
       O -4.81900e-06  9.22242e-05 -5.86528e-06
       O -1.49002e-05  4.58643e-05 -2.32641e-05
       H -1.65918e-04  1.77281e-04  6.51379e-05
       H -1.92626e-04  1.24687e-04  3.43013e-04
       H  1.28939e-04 -2.37729e-04  6.09967e-05
14
# CELL(abcABC):   25.29166    25.29166    25.29166    90.00000    90.00000    90.00000  Traj: v_centroid Step:          32  Bead:       0 
       O  4.93620e-05 -5.00347e-05  1.06577e-04
       O -1.32306e-05 -1.08147e-04 -7.23822e-05
       H -3.69238e-04 -1.13761e-04 -2.93504e-04
       H  1.18539e-04  5.16163e-06 -1.18648e-04
       H  4.15608e-05 -3.54933e-04 -2.76895e-05
       H -1.45152e-04  3.82565e-04 -4.05152e-04
       H  1.25212e-04  1.96651e-04  2.02311e-05
       H -9.77866e-05 -3.29125e-04 -1.02041e-04
       H  3.65383e-05 -9.59485e-05 -1.12027e-04
       O  3.15737e-06  1.12095e-04 -1.75101e-07
       O -2.18555e-05  5.56663e-05  1.65576e-06
       H -1.11111e-04  2.31025e-04  4.36811e-05
       H -1.30215e-04  2.38916e-05  3.62134e-04
       H  2.54927e-04 -9.75938e-05  6.67213e-05
14
# CELL(abcABC):   25.29166    25.29166    25.29166    90.00000    90.00000    90.00000  Traj: v_centroid Step:          34  Bead:       0 
       O  5.21362e-05 -3.53337e-05  1.18715e-04
       O  1.03579e-05 -7.53953e-05 -8.65183e-05
       H -3.80351e-04 -2.64718e-04 -1.76185e-04
       H  2.53546e-05  3.09533e-05 -1.35777e-04
       H -1.88053e-05 -2.89499e-04  7.96155e-05
       H -1.86872e-04  3.69405e-04 -3.57862e-04
       H  8.06401e-05  9.28267e-05 -9.50495e-06
       H -1.50641e-04 -4.04584e-04 -3.84346e-05
       H  2.42047e-05 -5.28007e-05 -1.90443e-04
       O -7.43549e-06  1.03155e-04  1.49118e-05
       O  4.90387e-06  2.93406e-05 -1.37137e-05
       H -2.34929e-04  2.36661e-04  1.02309e-05
       H -2.33252e-04  2.53730e-06  2.98400e-04
       H  1.22843e-04 -6.62935e-05 -1.01270e-05
14
# CELL(abcABC):   25.29166    25.29166    25.29166    90.00000    90.00000    90.00000  Traj: v_centroid Step:          36  Bead:       0 
       O  3.26239e-05 -2.71579e-05  1.04519e-04
       O  4.12083e-06 -7.09410e-05 -9.66241e-05
       H -2.87214e-04 -2.01847e-04 -1.25165e-04
       H  4.15466e-06  1.04951e-06 -6.06966e-05
       H -3.86448e-05 -2.34083e-04  4.23554e-06
       H -2.23478e-04  4.27513e-04 -2.24922e-04
       H  2.38844e-05 -9.04297e-05 -1.42219e-04
       H -1.61504e-04 -4.66240e-04 -4.24912e-05
       H  2.73432e-05  5.27726e-05 -1.97213e-04
       O -3.94086e-06  8.57714e-05  3.66668e-05
       O  2.46176e-05  4.64892e-05 -6.53426e-06
       H -1.83130e-04  1.48127e-04 -4.38994e-05
       H -2.74147e-04 -4.18894e-05  1.65768e-04
       H  2.01263e-04 -1.37236e-04  6.29869e-05
14
# CELL(abcABC):   25.29166    25.29166    25.29166    90.00000    90.00000    90.00000  Traj: v_centroid Step:          38  Bead:       0 
       O  6.75673e-06 -2.84359e-05  1.01431e-04
       O  1.14194e-05 -5.27777e-05 -1.39006e-04
       H -1.61061e-04 -1.38135e-04  3.72188e-05
       H  5.97736e-06 -1.16676e-04 -3.28502e-05
       H  7.25551e-05 -1.77456e-04 -1.08890e-05
       H -3.09883e-04  2.61746e-04 -1.26397e-04
       H -4.83199e-05 -2.14178e-04 -2.67069e-04
       H -2.08071e-04 -4.76312e-04  3.82295e-05
       H  4.94214e-05 -3.70712e-05 -2.50843e-04
       O -1.68528e-05  6.86445e-05  3.37050e-05
       O  5.18577e-05  6.55556e-05  2.34959e-05
       H -1.64609e-04  2.38154e-04  2.44630e-05
       H -3.17633e-04  1.87281e-05  1.39088e-04
       H  2.37461e-04 -1.99874e-04  1.37532e-04
14
# CELL(abcABC):   25.29166    25.29166    25.29166    90.00000    90.00000    90.00000  Traj: v_centroid Step:          40  Bead:       0 
       O  1.11712e-05 -3.96286e-05  9.26367e-05
       O  2.58614e-05 -5.32534e-05 -1.33151e-04
       H -5.31897e-05 -1.14904e-04  1.66517e-04
       H -4.99077e-05 -5.88920e-05  4.31211e-05
       H  6.27696e-05 -1.14722e-04 -1.42108e-04
       H -4.51060e-04  1.83386e-04 -1.05801e-04
       H  9.19783e-05 -3.30585e-04 -4.86622e-04
       H -2.02987e-04 -3.90065e-04  8.47719e-05
       H  7.15719e-05 -6.32721e-05 -2.15263e-04
       O -2.15586e-05  6.12928e-05  1.33373e-05
       O  2.43647e-05  9.60390e-05  5.15059e-05
       H -1.17645e-04  2.95969e-04  1.63772e-04
       H -3.53531e-04 -5.06994e-05 -1.14586e-05
       H  3.69626e-04 -3.79251e-04  1.16891e-04
14
# CELL(abcABC):   25.29166    25.29166    25.29166    90.00000    90.00000    90.00000  Traj: v_centroid Step:          42  Bead:       0 
       O -1.83811e-05 -3.61730e-05  8.15074e-05
       O  2.06220e-05 -3.39903e-05 -1.46836e-04
       H -1.42939e-04 -2.61250e-04  3.55153e-04
       H -9.10992e-05 -1.54029e-04 -2.28005e-05
       H  6.27763e-05 -1.17602e-04 -3.13663e-04
       H -3.28702e-04  5.74304e-05  5.71281e-05
       H  1.93599e-04 -4.17457e-04 -5.70795e-04
       H -1.07352e-04 -4.18065e-04  1.52838e-04
       H -1.44251e-05  1.44639e-05 -1.98529e-04
       O -8.64876e-06  6.00330e-05  4.11885e-05
       O  3.12618e-05  9.92110e-05  3.65808e-05
       H -8.00341e-05  2.67093e-04  2.96375e-04
       H -1.75392e-04  5.65739e-05  2.46191e-05
       H  2.89053e-04 -4.41167e-04  2.21966e-05
14
# CELL(abcABC):   25.29166    25.29166    25.29166    90.00000    90.00000    90.00000  Traj: v_centroid Step:          44  Bead:       0 
       O -1.80584e-05 -4.71657e-05  9.49785e-05
       O  1.01153e-05 -1.80236e-05 -1.72243e-04
       H -9.85120e-05 -2.41456e-04  6.04539e-04
       H  2.58544e-05 -9.08305e-05 -9.76014e-06
       H -1.82786e-05 -8.11430e-05 -2.90498e-04
       H -3.18026e-04 -1.02825e-04  1.30374e-04
       H  2.10106e-04 -4.56297e-04 -4.50437e-04
       H -5.24230e-05 -4.74305e-04  3.90506e-05
       H  1.57288e-05 -4.37492e-05 -1.81694e-04
       O  1.42691e-05  6.85465e-05  4.51781e-05
       O  2.00710e-06  8.71108e-05  2.14424e-05
       H -5.87428e-05  3.95684e-04  3.25245e-04
       H -1.40523e-04  1.38475e-04  3.12321e-05
       H  3.02543e-04 -4.79585e-04 -2.90918e-05
14
# CELL(abcABC):   25.29166    25.29166    25.29166    90.00000    90.00000    90.00000  Traj: v_centroid Step:          46  Bead:       0 
       O -4.33339e-05 -3.68020e-05  7.63716e-05
       O  7.11431e-06 -1.73905e-05 -1.57270e-04
       H  1.23704e-04 -1.93275e-04  7.03478e-04
       H  7.41372e-05 -2.29970e-05  1.40778e-04
       H -3.46331e-06  2.35324e-05 -4.15254e-04
       H -2.73993e-04 -2.82850e-04  3.14716e-05
       H  1.24468e-04 -3.57556e-04 -4.81471e-04
       H -2.09048e-05 -5.17262e-04  1.00078e-04
       H  2.81225e-05 -1.08986e-04 -1.68053e-04
       O -2.34836e-05  3.21363e-05  4.63140e-05
       O  4.63343e-05  1.07316e-04  2.87313e-05
       H  3.09384e-05  5.00720e-04  2.69037e-04
       H -2.04576e-04  1.13056e-04 -8.02161e-05
       H  3.33776e-04 -5.07743e-04 -6.94409e-06
14
# CELL(abcABC):   25.29166    25.29166    25.29166    90.00000    90.00000    90.00000  Traj: v_centroid Step:          48  Bead:       0 
       O -5.12898e-05 -3.14637e-05  5.09568e-05
       O  7.43255e-06 -3.22906e-05 -1.40245e-04
       H  1.75176e-04 -2.65938e-04  7.67541e-04
       H  5.84546e-05  1.25774e-05  8.84333e-05
       H -6.47244e-05  1.57733e-04 -4.36225e-04
       H -2.97714e-04 -3.48709e-04 -8.54694e-05
       H  7.21471e-05 -2.57887e-04 -3.97953e-04
       H -4.43987e-05 -5.55999e-04 -1.06432e-05
       H  1.64998e-04 -8.21472e-05 -5.57273e-05
       O -3.04311e-05  1.16312e-05  3.92574e-05
       O  5.47251e-05  1.34874e-04  5.25217e-05
       H  8.73425e-05  5.29647e-04  2.56329e-04
       H -1.85935e-04  4.82872e-05 -6.27361e-05
       H  3.45188e-04 -5.51098e-04 -1.03081e-04
14
# CELL(abcABC):   25.29166    25.29166    25.29166    90.00000    90.00000    90.00000  Traj: v_centroid Step:          50  Bead:       0 
       O -8.25509e-05 -3.33232e-05  4.01363e-05
       O -3.34380e-05 -2.46776e-05 -1.32932e-04
       H  2.34380e-04 -3.26631e-04  8.57815e-04
       H  6.53900e-05  9.91520e-05 -8.81554e-06
       H -4.66646e-05  1.27056e-04 -4.22401e-04
       H -9.77101e-05 -3.10213e-04 -1.86990e-04
       H -5.94813e-05 -2.82595e-06 -3.16501e-04
       H -5.51912e-05 -5.99117e-04 -3.95630e-05
       H  8.88147e-05 -5.16173e-05 -6.37921e-05
       O  4.94049e-06  1.38254e-05  6.14132e-05
       O  8.67977e-05  1.12170e-04  3.30067e-05
       H  1.46729e-04  4.62584e-04  3.05265e-04
       H -2.89316e-04  4.45331e-05  7.15832e-06
       H  3.97988e-04 -5.22216e-04 -1.57964e-04
14
# CELL(abcABC):   25.29166    25.29166    25.29166    90.00000    90.00000    90.00000  Traj: v_centroid Step:          52  Bead:       0 
       O -6.03201e-05 -4.65515e-05  3.93285e-05
       O -2.71454e-05 -1.36843e-05 -1.32582e-04
       H  2.59524e-04 -4.37673e-04  7.69301e-04
       H  3.00795e-05  9.30148e-05  2.92567e-05
       H  2.51383e-05  1.89726e-04 -4.96485e-04
       H -5.62106e-06 -3.29585e-04 -2.22014e-04
       H -2.73792e-04  2.83041e-04 -2.11095e-04
       H -1.48018e-05 -5.67550e-04 -1.50474e-05
       H  1.10802e-04 -4.99399e-05  9.48693e-06
       O -1.15706e-05  1.24955e-05  4.10631e-05
       O  8.28017e-05  1.03946e-04  4.19231e-05
       H  1.17448e-04  4.54744e-04  3.63310e-04
       H -3.78222e-04  1.25069e-04  8.74490e-05
       H  3.87140e-04 -6.53025e-04 -1.51190e-04
14
# CELL(abcABC):   25.29166    25.29166    25.29166    90.00000    90.00000    90.00000  Traj: v_centroid Step:          54  Bead:       0 
       O -4.48781e-05 -7.15186e-05  3.77201e-05
       O -3.56966e-05 -1.22294e-05 -1.29519e-04
       H  2.59636e-04 -6.16589e-04  4.97352e-04
       H -2.28491e-05  8.85620e-05 -8.58386e-05
       H  7.55957e-05  2.11906e-04 -6.17556e-04
       H -2.34526e-06 -3.38575e-04 -2.31355e-04
       H -3.87395e-04  6.63721e-04 -1.84016e-04
       H -1.40656e-05 -5.71727e-04  2.85217e-05
       H  6.82164e-05  1.77712e-05  2.89537e-05
       O -6.30089e-06  2.57641e-06  4.94100e-05
       O  7.01609e-05  1.22995e-04  5.24319e-05
       H  1.50315e-04  4.51541e-04  4.02184e-04
       H -3.46618e-04  1.06274e-04  1.77929e-04
       H  4.84828e-04 -6.76754e-04 -1.75593e-04
14
# CELL(abcABC):   25.29166    25.29166    25.29166    90.00000    90.00000    90.00000  Traj: v_centroid Step:          56  Bead:       0 
       O -5.34430e-05 -6.87799e-05  5.24976e-05
       O -3.85549e-05 -1.67576e-05 -1.53779e-04
       H  2.06215e-04 -7.35576e-04  2.22542e-04
       H  9.60764e-06 -2.05204e-05 -1.02176e-04
       H  1.42690e-04  1.11425e-04 -4.69932e-04
       H  1.01189e-04 -3.78799e-04 -3.29081e-04
       H -3.44754e-04  7.42196e-04 -1.21751e-04
       H  6.81966e-05 -5.68406e-04  2.29429e-05
       H  2.00624e-04 -9.01657e-06  8.20517e-05
       O -2.81080e-05  1.30044e-05  5.10540e-05
       O  8.67331e-05  1.35603e-04  6.41999e-05
       H  1.17386e-05  4.59394e-04  4.41503e-04
       H -2.99674e-04  7.60523e-05  1.47883e-04
       H  4.33906e-04 -6.77881e-04 -1.15768e-04
14
# CELL(abcABC):   25.29166    25.29166    25.29166    90.00000    90.00000    90.00000  Traj: v_centroid Step:          58  Bead:       0 
       O -2.74911e-05 -5.56560e-05  6.49026e-05
       O -7.05289e-05 -1.41076e-05 -1.65025e-04
       H  1.17462e-04 -7.29831e-04  1.55549e-04
       H -1.89671e-04 -1.21169e-04 -1.10995e-04
       H  1.58571e-04  8.92255e-05 -4.28544e-04
       H  2.32682e-04 -4.31280e-04 -5.21515e-04
       H -2.57656e-04  9.21598e-04 -7.92191e-05
       H  8.34127e-05 -5.97907e-04 -1.51348e-05
       H  1.74508e-04  1.20621e-05  1.75088e-04
       O -4.01741e-05  1.05908e-05  5.47759e-05
       O  1.01449e-04  1.29423e-04  5.24963e-05
       H  1.17883e-04  3.09645e-04  5.46769e-04
       H -3.24568e-04  8.31860e-05  1.21224e-04
       H  4.70650e-04 -6.50641e-04  4.32888e-05
14
# CELL(abcABC):   25.29166    25.29166    25.29166    90.00000    90.00000    90.00000  Traj: v_centroid Step:          60  Bead:       0 
       O  1.65038e-05 -3.86048e-05  8.15629e-05
       O -1.12538e-04 -4.58596e-05 -1.33781e-04
       H -1.07049e-05 -7.91617e-04 -5.90076e-05
       H -2.51180e-04 -3.63471e-05 -1.76740e-04
       H  2.61149e-04  1.00347e-05 -3.16714e-04
       H  4.22319e-04 -3.45385e-04 -6.57534e-04
       H -1.90732e-04  8.09799e-04 -4.97440e-05
       H  1.63117e-04 -5.22270e-04  3.09906e-06
       H  1.46526e-04 -7.08030e-05  2.58671e-04
       O -3.48305e-05  8.45690e-06  2.50548e-05
       O  8.65505e-05  1.66148e-04  4.84996e-05
       H  8.52016e-05  2.11468e-04  5.82150e-04
       H -3.23039e-04  3.50770e-05  8.70613e-05
       H  4.00758e-04 -7.30789e-04 -9.91579e-06
14
# CELL(abcABC):   25.29166    25.29166    25.29166    90.00000    90.00000    90.00000  Traj: v_centroid Step:          62  Bead:       0 
       O  1.46061e-05 -3.52383e-05  9.86876e-05
       O -1.45136e-04 -3.79637e-05 -1.44065e-04
       H -1.24048e-05 -8.34049e-04 -2.08565e-04
       H -2.60084e-04 -3.48694e-05 -1.22924e-04
       H  1.98553e-04 -1.16114e-04 -2.30405e-04
       H  4.12880e-04 -3.36002e-04 -7.12877e-04
       H -3.81085e-05  6.05639e-04 -1.45872e-04
       H  8.33536e-05 -5.88544e-04  1.43667e-04
       H  1.59149e-04 -1.54872e-04  1.97923e-04
       O -3.39932e-07  2.86036e-05  3.88953e-05
       O  6.98596e-05  1.51892e-04  3.91268e-05
       H  1.84658e-04  2.88703e-04  5.54562e-04
       H -3.08175e-04  7.01588e-05  2.06437e-05
       H  5.48608e-04 -6.03167e-04 -1.43410e-05
14
# CELL(abcABC):   25.29166    25.29166    25.29166    90.00000    90.00000    90.00000  Traj: v_centroid Step:          64  Bead:       0 
       O  4.09087e-06 -3.33734e-05  9.04897e-05
       O -1.34784e-04 -1.83004e-05 -1.26659e-04
       H  3.42113e-05 -9.45489e-04 -2.02443e-04
       H -3.36435e-04 -5.50150e-05 -1.50319e-04
       H  1.49901e-04 -1.78105e-04 -2.17830e-04
       H  3.01675e-04 -3.96627e-04 -7.88962e-04
       H  9.85471e-05  3.95089e-04 -1.09897e-04
       H  1.39090e-04 -6.13639e-04  7.53715e-05
       H  2.53775e-04 -2.37420e-05  1.42677e-04
       O -9.32796e-06  2.67779e-05  5.29661e-05
       O  6.56015e-05  1.44571e-04  3.16193e-05
       H  1.70013e-04  3.22189e-04  4.10360e-04
       H -2.04096e-04  2.33114e-04  7.43353e-05
       H  5.74608e-04 -6.37426e-04 -1.81517e-06
14
# CELL(abcABC):   25.29166    25.29166    25.29166    90.00000    90.00000    90.00000  Traj: v_centroid Step:          66  Bead:       0 
       O  1.21798e-05  3.78744e-06  1.00508e-04
       O -1.27374e-04 -2.16424e-06 -1.47567e-04
       H  7.51137e-05 -9.04941e-04 -1.95038e-04
       H -2.79625e-04 -5.68671e-05 -1.27130e-05
       H  1.16699e-04 -1.93082e-04 -7.66401e-05
       H  2.20116e-04 -4.04849e-04 -7.16839e-04
       H  1.76684e-04  2.02709e-04 -1.97510e-04
       H  7.77945e-05 -6.50836e-04  2.79702e-05
       H  2.14905e-04 -9.64072e-06  1.51874e-04
       O -1.52300e-05 -2.10222e-06  4.75455e-05
       O  5.94540e-05  1.33503e-04  3.14479e-05
       H  2.21039e-04  3.57343e-04  3.39681e-04
       H -1.63670e-04  1.69239e-04  1.58739e-04
       H  4.67484e-04 -6.20610e-04  1.35666e-05
14
# CELL(abcABC):   25.29166    25.29166    25.29166    90.00000    90.00000    90.00000  Traj: v_centroid Step:          68  Bead:       0 
       O  1.02634e-05  2.46293e-05  1.11724e-04
       O -1.15078e-04 -9.41830e-06 -1.69169e-04
       H  6.06885e-06 -9.00043e-04 -1.40850e-04
       H -1.57369e-04 -8.36094e-05  2.13602e-05
       H  4.79985e-05 -2.24446e-04  4.17680e-05
       H  1.52486e-04 -5.17651e-04 -5.67147e-04
       H  3.04551e-04  5.61887e-05 -1.58638e-04
       H  6.31823e-05 -6.37688e-04 -4.18554e-06
       H  2.95109e-04 -3.61142e-05  1.28447e-04
       O -3.29550e-05  5.10220e-06  4.12535e-05
       O  8.04589e-05  1.32901e-04  4.01903e-05
       H  1.21922e-04  3.75527e-04  2.26860e-04
       H -2.35927e-04  5.95300e-05  1.18729e-04
       H  3.11694e-04 -5.23725e-04 -4.72743e-05
14
# CELL(abcABC):   25.29166    25.29166    25.29166    90.00000    90.00000    90.00000  Traj: v_centroid Step:          70  Bead:       0 
       O  1.49539e-05  2.70871e-05  9.62598e-05
       O -9.58078e-05  1.35305e-05 -1.86141e-04
       H  3.42486e-05 -8.64234e-04 -1.23229e-04
       H -1.01738e-04 -4.02752e-05  3.12679e-05
       H  8.72818e-05 -1.78473e-04  9.98307e-05
       H -4.67735e-05 -6.32153e-04 -5.38658e-04
       H  4.76620e-04 -1.75330e-04 -1.81938e-04
       H  1.34761e-04 -4.44915e-04 -1.15010e-04
       H  3.01388e-04 -4.76972e-05  1.19003e-04
       O -5.07287e-05  3.71709e-06  5.44044e-05
       O  6.35540e-05  1.14144e-04  5.45439e-05
       H  1.61306e-04  3.14126e-04  3.55757e-04
       H -3.78984e-04  1.66136e-05  3.84856e-05
       H  4.11733e-04 -4.63259e-04  1.18336e-05
14
# CELL(abcABC):   25.29166    25.29166    25.29166    90.00000    90.00000    90.00000  Traj: v_centroid Step:          72  Bead:       0 
       O -4.52877e-06  3.85705e-05  6.87840e-05
       O -9.31403e-05  2.00770e-05 -1.91740e-04
       H  9.31749e-05 -8.36991e-04  7.38311e-05
       H -8.47539e-05 -7.28830e-05  9.84526e-05
       H -4.79495e-05 -1.78822e-04  1.26268e-04
       H -2.31234e-04 -7.54327e-04 -3.26084e-04
       H  4.87692e-04 -3.66098e-04 -1.59480e-04
       H  2.01241e-04 -4.64709e-04 -9.80555e-05
       H  4.04024e-04 -6.07596e-05  1.12370e-04
       O -5.65554e-05  2.99659e-06  4.60411e-05
       O  9.56305e-05  1.10743e-04  6.99882e-05