80
# CELL(abcABC):   13.18034    17.29206    24.21758    90.00000    66.14000    90.00000  cell{atomic_unit}  Traj: positions{angstrom} Step:         168  Bead:       0 
       C  8.48241e+00  5.46929e+00  9.53546e+00
       H  8.00841e+00  6.45175e+00  9.53027e+00
       H  8.24490e+00  4.94014e+00  1.04618e+01
       H  9.56439e+00  5.61146e+00  9.46853e+00
       C  7.95552e+00  4.68920e+00  8.37016e+00
       O  6.75626e+00  4.62898e+00  8.14843e+00
       N  8.93125e+00  3.95913e+00  7.74351e+00
       H  9.85445e+00  3.97272e+00  8.18103e+00
       C  8.81752e+00  3.15370e+00  6.59779e+00
       C  7.69114e+00  3.12352e+00  5.76153e+00
       H  6.82762e+00  3.74116e+00  5.97169e+00
       C  7.69047e+00  2.31444e+00  4.62037e+00
       H  6.83382e+00  2.31394e+00  3.95689e+00
       C  9.93827e+00  2.37889e+00  6.27914e+00
       H  1.08157e+01  2.40882e+00  6.91402e+00
       C  9.93917e+00  1.56098e+00  5.14419e+00
       H  1.08034e+01  9.53550e-01  4.90770e+00
       C  8.81308e+00  1.54363e+00  4.32970e+00
       O  8.80980e+00  7.77543e-01  3.19210e+00
       H  9.73737e+00  4.63885e-01  3.03697e+00
       C  6.25617e+00  1.00440e+01  8.04090e+00
       H  5.17466e+00  1.01886e+01  8.10944e+00
       H  6.49103e+00  9.51290e+00  7.11495e+00
       H  6.73228e+00  1.10254e+01  8.04368e+00
       C  6.78306e+00  9.26448e+00  9.20673e+00
       O  7.98191e+00  9.20512e+00  9.42941e+00
       N  5.80730e+00  8.53347e+00  9.83256e+00
       H  4.88438e+00  8.54638e+00  9.39461e+00
       C  5.92146e+00  7.72851e+00  1.09786e+01
       C  4.80134e+00  6.95280e+00  1.12972e+01
       H  3.92371e+00  6.98202e+00  1.06625e+01
       C  4.80127e+00  6.13495e+00  1.24321e+01
       H  3.93774e+00  5.52643e+00  1.26685e+01
       C  7.04762e+00  7.69968e+00  1.18152e+01
       H  7.91045e+00  8.31840e+00  1.16055e+01
       C  7.04916e+00  6.89065e+00  1.29564e+01
       H  7.90605e+00  6.89098e+00  1.36196e+01
       C  5.92727e+00  6.11867e+00  1.32467e+01
       O  5.93099e+00  5.35192e+00  1.43838e+01
       H  5.00353e+00  5.03782e+00  1.45385e+01
       C  3.66193e+00  3.68064e+00  2.18028e+00
       H  3.89239e+00  4.21291e+00  1.25392e+00
       H  4.13729e+00  2.69887e+00  2.17967e+00
       H  2.58062e+00  3.53593e+00  2.25304e+00
       C  4.19310e+00  4.45927e+00  3.34515e+00
       O  5.39242e+00  4.52001e+00  3.56460e+00
       N  3.21801e+00  5.18892e+00  3.97320e+00
       H  2.29493e+00  5.17605e+00  3.53577e+00
       C  3.33095e+00  5.99353e+00  5.11914e+00
       C  2.20919e+00  6.76757e+00  5.43591e+00
       H  1.33274e+00  6.73713e+00  4.79962e+00
       C  2.20595e+00  7.58549e+00  6.57070e+00
       H  1.34080e+00  8.19248e+00  6.80512e+00
       C  4.45585e+00  6.02314e+00  5.95713e+00
       H  5.31977e+00  5.40537e+00  5.74842e+00
       C  4.45385e+00  6.83204e+00  7.09854e+00
       H  5.30904e+00  6.83252e+00  7.76378e+00
       C  3.33081e+00  7.60323e+00  7.38697e+00
       O  3.33352e+00  8.37090e+00  8.52359e+00
       H  2.40614e+00  8.68559e+00  8.67786e+00
       C  5.89228e+00 -8.96138e-01  3.67534e+00
       H  5.65872e+00 -3.65068e-01  4.60160e+00
       H  6.97405e+00 -1.03893e+00  3.60519e+00
       H  5.41834e+00 -1.87862e+00  3.67398e+00
       C  5.36262e+00 -1.17246e-01  2.51018e+00
       O  4.16301e+00 -5.64419e-02  2.28993e+00
       N  6.33758e+00  6.12940e-01  1.88289e+00
       H  7.26083e+00  5.99477e-01  2.32014e+00
       C  6.22430e+00  1.41839e+00  7.37396e-01
       C  7.34580e+00  2.19260e+00  4.20208e-01
       H  8.22247e+00  2.16223e+00  1.05618e+00
       C  7.34864e+00  3.01037e+00 -7.14741e-01
       H  8.21367e+00  3.61730e+00 -9.49728e-01
       C  5.09892e+00  1.44863e+00 -1.00083e-01
       H  4.23487e+00  8.31218e-01  1.08851e-01
       C  5.10037e+00  2.25750e+00 -1.24146e+00
       H  4.24473e+00  2.25813e+00 -1.90616e+00
       C  6.22355e+00  3.02811e+00 -1.53065e+00
       O  6.22100e+00  3.79496e+00 -2.66780e+00
       H  7.14879e+00  4.10812e+00 -2.82291e+00
